 Entering Gaussian System, Link 0=g09
 Initial command:
 /usr/local/gaussian/gaussian09.d1/g09/l1.exe "/scratch/sarariop/CF3SO3H-Ag4.com/Gau-6714.inp" -scrdir="/scratch/sarariop/CF3SO3H-Ag4.com/"
 Entering Link 1 = /usr/local/gaussian/gaussian09.d1/g09/l1.exe PID=      6715.
  
 Copyright (c) 1988,1990,1992,1993,1995,1998,2003,2009,2013,
            Gaussian, Inc.  All Rights Reserved.
  
 This is part of the Gaussian(R) 09 program.  It is based on
 the Gaussian(R) 03 system (copyright 2003, Gaussian, Inc.),
 the Gaussian(R) 98 system (copyright 1998, Gaussian, Inc.),
 the Gaussian(R) 94 system (copyright 1995, Gaussian, Inc.),
 the Gaussian 92(TM) system (copyright 1992, Gaussian, Inc.),
 the Gaussian 90(TM) system (copyright 1990, Gaussian, Inc.),
 the Gaussian 88(TM) system (copyright 1988, Gaussian, Inc.),
 the Gaussian 86(TM) system (copyright 1986, Carnegie Mellon
 University), and the Gaussian 82(TM) system (copyright 1983,
 Carnegie Mellon University). Gaussian is a federally registered
 trademark of Gaussian, Inc.
  
 This software contains proprietary and confidential information,
 including trade secrets, belonging to Gaussian, Inc.
  
 This software is provided under written license and may be
 used, copied, transmitted, or stored only in accord with that
 written license.
  
 The following legend is applicable only to US Government
 contracts under FAR:
  
                    RESTRICTED RIGHTS LEGEND
  
 Use, reproduction and disclosure by the US Government is
 subject to restrictions as set forth in subparagraphs (a)
 and (c) of the Commercial Computer Software - Restricted
 Rights clause in FAR 52.227-19.
  
 Gaussian, Inc.
 340 Quinnipiac St., Bldg. 40, Wallingford CT 06492
  
  
 ---------------------------------------------------------------
 Warning -- This program may not be used in any manner that
 competes with the business of Gaussian, Inc. or will provide
 assistance to any competitor of Gaussian, Inc.  The licensee
 of this program is prohibited from giving any competitor of
 Gaussian, Inc. access to this program.  By using this program,
 the user acknowledges that Gaussian, Inc. is engaged in the
 business of creating and licensing software in the field of
 computational chemistry and represents and warrants to the
 licensee that it is not a competitor of Gaussian, Inc. and that
 it will not use this program in any manner prohibited above.
 ---------------------------------------------------------------
  

 Cite this work as:
 Gaussian 09, Revision D.01,
 M. J. Frisch, G. W. Trucks, H. B. Schlegel, G. E. Scuseria, 
 M. A. Robb, J. R. Cheeseman, G. Scalmani, V. Barone, B. Mennucci, 
 G. A. Petersson, H. Nakatsuji, M. Caricato, X. Li, H. P. Hratchian, 
 A. F. Izmaylov, J. Bloino, G. Zheng, J. L. Sonnenberg, M. Hada, 
 M. Ehara, K. Toyota, R. Fukuda, J. Hasegawa, M. Ishida, T. Nakajima, 
 Y. Honda, O. Kitao, H. Nakai, T. Vreven, J. A. Montgomery, Jr., 
 J. E. Peralta, F. Ogliaro, M. Bearpark, J. J. Heyd, E. Brothers, 
 K. N. Kudin, V. N. Staroverov, T. Keith, R. Kobayashi, J. Normand, 
 K. Raghavachari, A. Rendell, J. C. Burant, S. S. Iyengar, J. Tomasi, 
 M. Cossi, N. Rega, J. M. Millam, M. Klene, J. E. Knox, J. B. Cross, 
 V. Bakken, C. Adamo, J. Jaramillo, R. Gomperts, R. E. Stratmann, 
 O. Yazyev, A. J. Austin, R. Cammi, C. Pomelli, J. W. Ochterski, 
 R. L. Martin, K. Morokuma, V. G. Zakrzewski, G. A. Voth, 
 P. Salvador, J. J. Dannenberg, S. Dapprich, A. D. Daniels, 
 O. Farkas, J. B. Foresman, J. V. Ortiz, J. Cioslowski, 
 and D. J. Fox, Gaussian, Inc., Wallingford CT, 2013.
 
 ******************************************
 Gaussian 09:  AM64L-G09RevD.01 24-Apr-2013
                22-Jun-2017 
 ******************************************
 %chk=CF3SO3H-Ag4.chk
 ----------------------
 # g4 geom=connectivity
 ----------------------
 1/14=-1,18=20,19=15,26=3,38=1,57=2/1,3;
 2/9=110,12=2,17=6,18=5,40=1/2;
 3/5=35,7=104,11=2,16=1,25=1,30=1,71=1,74=-5/1,2,3;
 4//1;
 5/5=2,38=5/2;
 6/7=2,8=2,9=2,10=2,28=1/1;
 7//1,2,3,16;
 1/14=-1,18=20,19=15,26=3/3(2);
 2/9=110/2;
 99//99;
 2/9=110/2;
 3/5=35,7=104,11=2,16=1,25=1,30=1,71=1,74=-5/1,2,3;
 4/5=5,16=3,69=1/1;
 5/5=2,38=5/2;
 7//1,2,3,16;
 1/14=-1,18=20,19=15,26=3/3(-5);
 2/9=110/2;
 6/7=2,8=2,9=2,10=2,19=2,28=1/1;
 99/9=1/99;
 -------------------
 Title Card Required
 -------------------
 Symbolic Z-matrix:
 Charge = -1 Multiplicity = 1
 S                    -0.56075   0.37383   0. 
 O                    -0.24548  -0.99641  -0.44304 
 O                    -0.24494   0.67524   1.40794 
 O                    -0.24532   1.44259  -0.9651 
 C                    -2.442     0.37395   0.00004 
 F                    -2.947    -0.55466   0.84156 
 F                    -2.94693   0.1094   -1.22474 
 F                    -2.94661   1.56715   0.38342 
 

 GradGradGradGradGradGradGradGradGradGradGradGradGradGradGradGradGradGrad
 Berny optimization.
 Initialization pass.
                           ----------------------------
                           !    Initial Parameters    !
                           ! (Angstroms and Degrees)  !
 --------------------------                            --------------------------
 ! Name  Definition              Value          Derivative Info.                !
 --------------------------------------------------------------------------------
 ! R1    R(1,2)                  1.4742         estimate D2E/DX2                !
 ! R2    R(1,3)                  1.4741         estimate D2E/DX2                !
 ! R3    R(1,4)                  1.4742         estimate D2E/DX2                !
 ! R4    R(1,5)                  1.8813         estimate D2E/DX2                !
 ! R5    R(5,6)                  1.3511         estimate D2E/DX2                !
 ! R6    R(5,7)                  1.3509         estimate D2E/DX2                !
 ! R7    R(5,8)                  1.3511         estimate D2E/DX2                !
 ! A1    A(2,1,3)              115.5489         estimate D2E/DX2                !
 ! A2    A(2,1,4)              115.5541         estimate D2E/DX2                !
 ! A3    A(2,1,5)              102.3524         estimate D2E/DX2                !
 ! A4    A(3,1,4)              115.5455         estimate D2E/DX2                !
 ! A5    A(3,1,5)              102.369          estimate D2E/DX2                !
 ! A6    A(4,1,5)              102.3534         estimate D2E/DX2                !
 ! A7    A(1,5,6)              111.9462         estimate D2E/DX2                !
 ! A8    A(1,5,7)              111.9458         estimate D2E/DX2                !
 ! A9    A(1,5,8)              111.935          estimate D2E/DX2                !
 ! A10   A(6,5,7)              106.8808         estimate D2E/DX2                !
 ! A11   A(6,5,8)              106.8973         estimate D2E/DX2                !
 ! A12   A(7,5,8)              106.8949         estimate D2E/DX2                !
 ! D1    D(2,1,5,6)             60.0992         estimate D2E/DX2                !
 ! D2    D(2,1,5,7)            -59.8928         estimate D2E/DX2                !
 ! D3    D(2,1,5,8)           -179.8951         estimate D2E/DX2                !
 ! D4    D(3,1,5,6)            -59.902          estimate D2E/DX2                !
 ! D5    D(3,1,5,7)           -179.8941         estimate D2E/DX2                !
 ! D6    D(3,1,5,8)             60.1037         estimate D2E/DX2                !
 ! D7    D(4,1,5,6)           -179.8998         estimate D2E/DX2                !
 ! D8    D(4,1,5,7)             60.1081         estimate D2E/DX2                !
 ! D9    D(4,1,5,8)            -59.8941         estimate D2E/DX2                !
 --------------------------------------------------------------------------------
 Trust Radius=3.00D-01 FncErr=1.00D-07 GrdErr=1.00D-06
 Number of steps in this run=     38 maximum allowed number of steps=    100.
 GradGradGradGradGradGradGradGradGradGradGradGradGradGradGradGradGradGrad

                          Input orientation:                          
 ---------------------------------------------------------------------
 Center     Atomic      Atomic             Coordinates (Angstroms)
 Number     Number       Type             X           Y           Z
 ---------------------------------------------------------------------
      1         16           0       -0.560748    0.373832    0.000000
      2          8           0       -0.245478   -0.996414   -0.443036
      3          8           0       -0.244943    0.675236    1.407938
      4          8           0       -0.245321    1.442586   -0.965099
      5          6           0       -2.442002    0.373949    0.000042
      6          9           0       -2.947000   -0.554663    0.841561
      7          9           0       -2.946930    0.109398   -1.224739
      8          9           0       -2.946611    1.567151    0.383423
 ---------------------------------------------------------------------
                    Distance matrix (angstroms):
                    1          2          3          4          5
     1  S    0.000000
     2  O    1.474195   0.000000
     3  O    1.474065   2.494097   0.000000
     4  O    1.474159   2.494248   2.494019   0.000000
     5  C    1.881254   2.626582   2.626788   2.626574   0.000000
     6  F    2.695279   3.023831   3.022341   3.814721   1.351110
     7  F    2.695139   3.021874   3.814695   3.023821   1.350936
     8  F    2.695063   3.814580   3.023930   3.021754   1.351052
                    6          7          8
     6  F    0.000000
     7  F    2.170385   0.000000
     8  F    2.170711   2.170537   0.000000
 Stoichiometry    CF3O3S(1-)
 Framework group  C1[X(CF3O3S)]
 Deg. of freedom    18
 Full point group                 C1      NOp   1
 Largest Abelian subgroup         C1      NOp   1
 Largest concise Abelian subgroup C1      NOp   1
                         Standard orientation:                         
 ---------------------------------------------------------------------
 Center     Atomic      Atomic             Coordinates (Angstroms)
 Number     Number       Type             X           Y           Z
 ---------------------------------------------------------------------
      1         16           0       -0.933427    0.000048   -0.000012
      2          8           0       -1.248697    1.370115   -0.443600
      3          8           0       -1.249232   -0.300789    1.408048
      4          8           0       -1.248854   -1.069095   -0.964680
      5          6           0        0.947827   -0.000069    0.000030
      6          9           0        1.452825    0.928882    0.841174
      7          9           0        1.452754    0.263989   -1.224858
      8          9           0        1.452436   -1.193116    0.383891
 ---------------------------------------------------------------------
 Rotational constants (GHZ):      2.6738913      1.5402304      1.5401076
 Standard basis: GTBas3 (6D, 7F)
 There are   252 symmetry adapted cartesian basis functions of A   symmetry.
 There are   228 symmetry adapted basis functions of A   symmetry.
   228 basis functions,   376 primitive gaussians,   252 cartesian basis functions
    37 alpha electrons       37 beta electrons
       nuclear repulsion energy       547.7011118724 Hartrees.
 NAtoms=    8 NActive=    8 NUniq=    8 SFac= 1.00D+00 NAtFMM=   60 NAOKFM=F Big=F
 Integral buffers will be    131072 words long.
 Raffenetti 2 integral format.
 Two-electron integral symmetry is turned on.
 One-electron integrals computed using PRISM.
 NBasis=   228 RedAO= T EigKep=  1.61D-03  NBF=   228
 NBsUse=   228 1.00D-06 EigRej= -1.00D+00 NBFU=   228
 ExpMin= 1.17D-01 ExpMax= 2.19D+04 ExpMxC= 3.30D+03 IAcc=1 IRadAn=         1 AccDes= 0.00D+00
 Harris functional with IExCor=  402 and IRadAn=       1 diagonalized for initial guess.
 HarFok:  IExCor=  402 AccDes= 0.00D+00 IRadAn=         1 IDoV= 1 UseB2=F ITyADJ=14
 ICtDFT=  3500011 ScaDFX=  1.000000  1.000000  1.000000  1.000000
 FoFCou: FMM=F IPFlag=           0 FMFlag=      100000 FMFlg1=           0
         NFxFlg=           0 DoJE=T BraDBF=F KetDBF=T FulRan=T
         wScrn=  0.000000 ICntrl=     500 IOpCl=  0 I1Cent=   200000004 NGrid=           0
         NMat0=    1 NMatS0=      1 NMatT0=    0 NMatD0=    1 NMtDS0=    0 NMtDT0=    0
 Petite list used in FoFCou.
 Requested convergence on RMS density matrix=1.00D-08 within 128 cycles.
 Requested convergence on MAX density matrix=1.00D-06.
 Requested convergence on             energy=1.00D-06.
 No special actions if energy rises.
 Integral accuracy reduced to 1.0D-05 until final iterations.
 Initial convergence to 1.0D-05 achieved.  Increase integral accuracy.
 SCF Done:  E(RB3LYP) =  -961.570452405     A.U. after   13 cycles
            NFock= 13  Conv=0.54D-08     -V/T= 2.0048

 **********************************************************************

            Population analysis using the SCF density.

 **********************************************************************

 Orbital symmetries:
       Occupied  (A) (A) (A) (A) (A) (A) (A) (A) (A) (A) (A) (A)
                 (A) (A) (A) (A) (A) (A) (A) (A) (A) (A) (A) (A)
                 (A) (A) (A) (A) (A) (A) (A) (A) (A) (A) (A) (A)
                 (A)
       Virtual   (A) (A) (A) (A) (A) (A) (A) (A) (A) (A) (A) (A)
                 (A) (A) (A) (A) (A) (A) (A) (A) (A) (A) (A) (A)
                 (A) (A) (A) (A) (A) (A) (A) (A) (A) (A) (A) (A)
                 (A) (A) (A) (A) (A) (A) (A) (A) (A) (A) (A) (A)
                 (A) (A) (A) (A) (A) (A) (A) (A) (A) (A) (A) (A)
                 (A) (A) (A) (A) (A) (A) (A) (A) (A) (A) (A) (A)
                 (A) (A) (A) (A) (A) (A) (A) (A) (A) (A) (A) (A)
                 (A) (A) (A) (A) (A) (A) (A) (A) (A) (A) (A) (A)
                 (A) (A) (A) (A) (A) (A) (A) (A) (A) (A) (A) (A)
                 (A) (A) (A) (A) (A) (A) (A) (A) (A) (A) (A) (A)
                 (A) (A) (A) (A) (A) (A) (A) (A) (A) (A) (A) (A)
                 (A) (A) (A) (A) (A) (A) (A) (A) (A) (A) (A) (A)
                 (A) (A) (A) (A) (A) (A) (A) (A) (A) (A) (A) (A)
                 (A) (A) (A) (A) (A) (A) (A) (A) (A) (A) (A) (A)
                 (A) (A) (A) (A) (A) (A) (A) (A) (A) (A) (A) (A)
                 (A) (A) (A) (A) (A) (A) (A) (A) (A) (A) (A)
 The electronic state is 1-A.
 Alpha  occ. eigenvalues --  -88.89832 -24.56741 -24.56737 -24.56735 -18.93266
 Alpha  occ. eigenvalues --  -18.93264 -18.93263 -10.25539  -7.91815  -5.88431
 Alpha  occ. eigenvalues --   -5.88232  -5.88231  -1.14773  -1.06119  -1.06114
 Alpha  occ. eigenvalues --   -0.92121  -0.78963  -0.78960  -0.55380  -0.45640
 Alpha  occ. eigenvalues --   -0.42605  -0.42603  -0.35497  -0.30667  -0.30665
 Alpha  occ. eigenvalues --   -0.27226  -0.27225  -0.27117  -0.25771  -0.25770
 Alpha  occ. eigenvalues --   -0.24813  -0.15018  -0.15016  -0.11918  -0.11916
 Alpha  occ. eigenvalues --   -0.11167  -0.07288
 Alpha virt. eigenvalues --    0.27932   0.27937   0.28117   0.28748   0.36683
 Alpha virt. eigenvalues --    0.41671   0.41674   0.43413   0.46867   0.50977
 Alpha virt. eigenvalues --    0.50981   0.59250   0.61698   0.61700   0.69376
 Alpha virt. eigenvalues --    0.69379   0.78112   0.82020   0.82105   0.82108
 Alpha virt. eigenvalues --    0.89970   0.89971   0.95222   1.00100   1.00103
 Alpha virt. eigenvalues --    1.01529   1.03978   1.03978   1.07264   1.09013
 Alpha virt. eigenvalues --    1.09020   1.11028   1.11033   1.11256   1.12763
 Alpha virt. eigenvalues --    1.15185   1.15188   1.15671   1.18591   1.18592
 Alpha virt. eigenvalues --    1.19907   1.19909   1.20662   1.24561   1.24565
 Alpha virt. eigenvalues --    1.28386   1.31399   1.33471   1.33482   1.39310
 Alpha virt. eigenvalues --    1.39346   1.39355   1.45897   1.46195   1.46199
 Alpha virt. eigenvalues --    1.53348   1.53351   1.55123   1.56939   1.56944
 Alpha virt. eigenvalues --    1.59964   1.61969   1.64914   1.64918   1.67727
 Alpha virt. eigenvalues --    1.81870   1.81876   1.87350   1.92202   1.92204
 Alpha virt. eigenvalues --    1.92676   1.99022   2.04715   2.04723   2.17235
 Alpha virt. eigenvalues --    2.17246   2.24184   2.26566   2.26566   2.31372
 Alpha virt. eigenvalues --    2.32739   2.32744   2.44717   2.44732   2.45667
 Alpha virt. eigenvalues --    2.49193   2.79489   2.79491   2.83424   2.96807
 Alpha virt. eigenvalues --    2.96810   3.02697   3.30297   3.32592   3.39769
 Alpha virt. eigenvalues --    3.39787   3.47791   3.47794   3.61907   3.97988
 Alpha virt. eigenvalues --    3.97999   4.06124   4.14844   4.26159   4.28004
 Alpha virt. eigenvalues --    4.28013   4.33098   4.33102   4.34183   4.34184
 Alpha virt. eigenvalues --    4.35539   4.35799   4.36653   4.36654   4.37760
 Alpha virt. eigenvalues --    4.37762   4.42123   4.43847   4.44271   4.44273
 Alpha virt. eigenvalues --    4.47267   4.47271   4.48985   4.52960   4.52961
 Alpha virt. eigenvalues --    4.59914   4.59917   4.61006   4.69746   4.73332
 Alpha virt. eigenvalues --    4.73341   4.77083   4.91498   4.91513   4.91615
 Alpha virt. eigenvalues --    4.96616   4.97037   4.97055   5.18746   5.20947
 Alpha virt. eigenvalues --    5.23801   5.23802   5.24195   5.24620   5.24625
 Alpha virt. eigenvalues --    5.33393   5.35517   5.35520   5.48747   5.48752
 Alpha virt. eigenvalues --    5.64792   5.86153   5.86163   5.90009   5.93575
 Alpha virt. eigenvalues --    5.93580   5.99296   6.00232   6.00240   6.18808
 Alpha virt. eigenvalues --    6.76052   6.76054   6.76345   6.76699   6.76706
 Alpha virt. eigenvalues --    6.78079   6.78231   6.78723   6.78727   6.81307
 Alpha virt. eigenvalues --    6.81312   6.89046   6.91798   6.91802   7.07753
 Alpha virt. eigenvalues --    7.26435   7.30455   7.30477   7.54371   7.54382
 Alpha virt. eigenvalues --    7.55235   7.55246   7.63486   7.63895   9.79190
 Alpha virt. eigenvalues --    9.79210   9.84198  12.13373  13.10734  13.11922
 Alpha virt. eigenvalues --   13.11932
          Condensed to atoms (all electrons):
               1          2          3          4          5          6
     1  S   13.535664   0.619223   0.619300   0.619229   0.220146   0.009410
     2  O    0.619223   7.877013  -0.031460  -0.031442  -0.036221  -0.000567
     3  O    0.619300  -0.031460   7.876752  -0.031466  -0.036206  -0.000560
     4  O    0.619229  -0.031442  -0.031466   7.876993  -0.036188   0.000267
     5  C    0.220146  -0.036221  -0.036206  -0.036188   4.747050   0.333282
     6  F    0.009410  -0.000567  -0.000560   0.000267   0.333282   8.833776
     7  F    0.009413  -0.000561   0.000267  -0.000567   0.333431  -0.035960
     8  F    0.009413   0.000267  -0.000566  -0.000561   0.333439  -0.035927
               7          8
     1  S    0.009413   0.009413
     2  O   -0.000561   0.000267
     3  O    0.000267  -0.000566
     4  O   -0.000567  -0.000561
     5  C    0.333431   0.333439
     6  F   -0.035960  -0.035927
     7  F    8.833464  -0.035946
     8  F   -0.035946   8.833504
 Mulliken charges:
               1
     1  S    0.358200
     2  O   -0.396252
     3  O   -0.396061
     4  O   -0.396266
     5  C    0.141266
     6  F   -0.103722
     7  F   -0.103542
     8  F   -0.103624
 Sum of Mulliken charges =  -1.00000
 Mulliken charges with hydrogens summed into heavy atoms:
               1
     1  S    0.358200
     2  O   -0.396252
     3  O   -0.396061
     4  O   -0.396266
     5  C    0.141266
     6  F   -0.103722
     7  F   -0.103542
     8  F   -0.103624
 Electronic spatial extent (au):  <R**2>=            864.1096
 Charge=             -1.0000 electrons
 Dipole moment (field-independent basis, Debye):
    X=              4.1076    Y=             -0.0004    Z=              0.0003  Tot=              4.1076
 Quadrupole moment (field-independent basis, Debye-Ang):
   XX=            -59.0624   YY=            -57.0848   ZZ=            -57.0823
   XY=              0.0000   XZ=             -0.0009   YZ=             -0.0007
 Traceless Quadrupole moment (field-independent basis, Debye-Ang):
   XX=             -1.3192   YY=              0.6583   ZZ=              0.6608
   XY=              0.0000   XZ=             -0.0009   YZ=             -0.0007
 Octapole moment (field-independent basis, Debye-Ang**2):
  XXX=             23.5136  YYY=             -2.3230  ZZZ=             -3.1812  XYY=             13.3655
  XXY=              0.0002  XXZ=             -0.0029  XZZ=             13.3660  YZZ=              2.3195
  YYZ=              3.1851  XYZ=             -0.0006
 Hexadecapole moment (field-independent basis, Debye-Ang**3):
 XXXX=           -483.2309 YYYY=           -221.0835 ZZZZ=           -221.0303 XXXY=             -0.0019
 XXXZ=              0.0018 YYYX=              4.5545 YYYZ=              0.0003 ZZZX=              6.2026
 ZZZY=             -0.0032 XXYY=           -127.8421 XXZZ=           -127.8362 YYZZ=            -73.6862
 XXYZ=             -0.0014 YYXZ=             -6.2091 ZZXY=             -4.5488
 N-N= 5.477011118724D+02 E-N=-3.392041153176D+03  KE= 9.570088239889D+02
 Calling FoFJK, ICntrl=      2127 FMM=F ISym2X=0 I1Cent= 0 IOpClX= 0 NMat=1 NMatS=1 NMatT=0.
 ***** Axes restored to original set *****
 -------------------------------------------------------------------
 Center     Atomic                   Forces (Hartrees/Bohr)
 Number     Number              X              Y              Z
 -------------------------------------------------------------------
      1       16           0.007666519   -0.000027460   -0.000075047
      2        8          -0.004497911    0.017216723    0.005564728
      3        8          -0.004511028   -0.003777848   -0.017617639
      4        8          -0.004495553   -0.013439789    0.012124106
      5        6          -0.003133580   -0.000014148    0.000066914
      6        9           0.003012025    0.004038838   -0.003654425
      7        9           0.002984937    0.001153342    0.005246068
      8        9           0.002974591   -0.005149659   -0.001654706
 -------------------------------------------------------------------
 Cartesian Forces:  Max     0.017617639 RMS     0.007140434

 GradGradGradGradGradGradGradGradGradGradGradGradGradGradGradGradGradGrad
 Berny optimization.
 FormGI is forming the generalized inverse of G from B-inverse, IUseBI=4.
 Internal  Forces:  Max     0.018639845 RMS     0.006535832
 Search for a local minimum.
 Step number   1 out of a maximum of   38
 All quantities printed in internal units (Hartrees-Bohrs-Radians)
 Mixed Optimization -- RFO/linear search
 Second derivative matrix not updated -- first step.
 ITU=  0
     Eigenvalues ---    0.00230   0.08128   0.08129   0.10832   0.10834
     Eigenvalues ---    0.20635   0.25000   0.25000   0.25000   0.25000
     Eigenvalues ---    0.25000   0.25000   0.54786   0.54798   0.54823
     Eigenvalues ---    0.85899   0.85913   0.85949
 RFO step:  Lambda=-1.61471293D-03 EMin= 2.30000000D-03
 Linear search not attempted -- first point.
 Iteration  1 RMS(Cart)=  0.01499548 RMS(Int)=  0.00001457
 Iteration  2 RMS(Cart)=  0.00002119 RMS(Int)=  0.00000645
 Iteration  3 RMS(Cart)=  0.00000000 RMS(Int)=  0.00000645
 Variable       Old X    -DE/DX   Delta X   Delta X   Delta X     New X
                                 (Linear)    (Quad)   (Total)
    R1        2.78582  -0.01864   0.00000  -0.02166  -0.02166   2.76417
    R2        2.78558  -0.01857   0.00000  -0.02156  -0.02156   2.76402
    R3        2.78576  -0.01864   0.00000  -0.02166  -0.02166   2.76410
    R4        3.55505  -0.00584   0.00000  -0.02807  -0.02807   3.52698
    R5        2.55323  -0.00618   0.00000  -0.01124  -0.01124   2.54199
    R6        2.55290  -0.00610   0.00000  -0.01109  -0.01109   2.54181
    R7        2.55312  -0.00613   0.00000  -0.01115  -0.01115   2.54197
    A1        2.01671   0.00070   0.00000   0.00276   0.00275   2.01945
    A2        2.01680   0.00068   0.00000   0.00269   0.00268   2.01948
    A3        1.78639  -0.00098   0.00000  -0.00388  -0.00389   1.78250
    A4        2.01665   0.00070   0.00000   0.00279   0.00278   2.01943
    A5        1.78668  -0.00103   0.00000  -0.00408  -0.00409   1.78258
    A6        1.78640  -0.00098   0.00000  -0.00389  -0.00390   1.78250
    A7        1.95383  -0.00090   0.00000  -0.00358  -0.00359   1.95024
    A8        1.95382  -0.00089   0.00000  -0.00354  -0.00355   1.95028
    A9        1.95363  -0.00085   0.00000  -0.00338  -0.00339   1.95025
   A10        1.86542   0.00098   0.00000   0.00389   0.00388   1.86930
   A11        1.86571   0.00095   0.00000   0.00377   0.00377   1.86948
   A12        1.86567   0.00095   0.00000   0.00376   0.00375   1.86942
    D1        1.04893   0.00000   0.00000  -0.00062  -0.00062   1.04831
    D2       -1.04533   0.00000   0.00000  -0.00063  -0.00063  -1.04596
    D3       -3.13976   0.00000   0.00000  -0.00063  -0.00063  -3.14039
    D4       -1.04549   0.00000   0.00000  -0.00061  -0.00061  -1.04609
    D5       -3.13974   0.00000   0.00000  -0.00062  -0.00063  -3.14037
    D6        1.04901   0.00000   0.00000  -0.00062  -0.00062   1.04839
    D7       -3.13984   0.00000   0.00000  -0.00063  -0.00063  -3.14047
    D8        1.04908   0.00000   0.00000  -0.00065  -0.00065   1.04844
    D9       -1.04535   0.00000   0.00000  -0.00064  -0.00064  -1.04599
         Item               Value     Threshold  Converged?
 Maximum Force            0.018640     0.000450     NO 
 RMS     Force            0.006536     0.000300     NO 
 Maximum Displacement     0.028533     0.001800     NO 
 RMS     Displacement     0.014987     0.001200     NO 
 Predicted change in Energy=-8.095508D-04
 GradGradGradGradGradGradGradGradGradGradGradGradGradGradGradGradGradGrad

                          Input orientation:                          
 ---------------------------------------------------------------------
 Center     Atomic      Atomic             Coordinates (Angstroms)
 Number     Number       Type             X           Y           Z
 ---------------------------------------------------------------------
      1         16           0       -0.567602    0.373811   -0.000037
      2          8           0       -0.260396   -0.987057   -0.439643
      3          8           0       -0.260041    0.673505    1.398157
      4          8           0       -0.260212    1.434878   -0.958755
      5          6           0       -2.434001    0.373977    0.000064
      6          9           0       -2.932292   -0.552155    0.838782
      7          9           0       -2.932353    0.110659   -1.221210
      8          9           0       -2.932133    1.563455    0.382732
 ---------------------------------------------------------------------
                    Distance matrix (angstroms):
                    1          2          3          4          5
     1  S    0.000000
     2  O    1.462734   0.000000
     3  O    1.462654   2.476888   0.000000
     4  O    1.462700   2.476942   2.476837   0.000000
     5  C    1.866399   2.601983   2.602015   2.601962   0.000000
     6  F    2.674470   2.993750   2.992668   3.784105   1.345163
     7  F    2.674427   2.992522   3.784063   2.993790   1.345066
     8  F    2.674467   3.784124   2.993856   2.992538   1.345150
                    6          7          8
     6  F    0.000000
     7  F    2.163999   0.000000
     8  F    2.164207   2.164081   0.000000
 Stoichiometry    CF3O3S(1-)
 Framework group  C1[X(CF3O3S)]
 Deg. of freedom    18
 Full point group                 C1      NOp   1
 Largest Abelian subgroup         C1      NOp   1
 Largest concise Abelian subgroup C1      NOp   1
                         Standard orientation:                         
 ---------------------------------------------------------------------
 Center     Atomic      Atomic             Coordinates (Angstroms)
 Number     Number       Type             X           Y           Z
 ---------------------------------------------------------------------
      1         16           0       -0.926943    0.000002    0.000003
      2          8           0       -1.234267    1.363447   -0.431463
      3          8           0       -1.234410   -0.308045    1.396401
      4          8           0       -1.234311   -1.055349   -0.965009
      5          6           0        0.939455   -0.000034    0.000007
      6          9           0        1.437726    0.921114    0.844207
      7          9           0        1.437725    0.270597   -1.219702
      8          9           0        1.437690   -1.191739    0.375548
 ---------------------------------------------------------------------
 Rotational constants (GHZ):      2.7010608      1.5675627      1.5674911
 Standard basis: GTBas3 (6D, 7F)
 There are   252 symmetry adapted cartesian basis functions of A   symmetry.
 There are   228 symmetry adapted basis functions of A   symmetry.
   228 basis functions,   376 primitive gaussians,   252 cartesian basis functions
    37 alpha electrons       37 beta electrons
       nuclear repulsion energy       551.6580662065 Hartrees.
 NAtoms=    8 NActive=    8 NUniq=    8 SFac= 1.00D+00 NAtFMM=   60 NAOKFM=F Big=F
 Integral buffers will be    131072 words long.
 Raffenetti 2 integral format.
 Two-electron integral symmetry is turned on.
 One-electron integrals computed using PRISM.
 NBasis=   228 RedAO= T EigKep=  1.60D-03  NBF=   228
 NBsUse=   228 1.00D-06 EigRej= -1.00D+00 NBFU=   228
 Initial guess from the checkpoint file:  "CF3SO3H-Ag4.chk"
 B after Tr=     0.000000    0.000000    0.000000
         Rot=    0.999995   -0.003174   -0.000025   -0.000035 Ang=  -0.36 deg.
 ExpMin= 1.17D-01 ExpMax= 2.19D+04 ExpMxC= 3.30D+03 IAcc=1 IRadAn=         1 AccDes= 0.00D+00
 Harris functional with IExCor=  402 and IRadAn=       1 diagonalized for initial guess.
 HarFok:  IExCor=  402 AccDes= 0.00D+00 IRadAn=         1 IDoV= 1 UseB2=F ITyADJ=14
 ICtDFT=  3500011 ScaDFX=  1.000000  1.000000  1.000000  1.000000
 FoFCou: FMM=F IPFlag=           0 FMFlag=      100000 FMFlg1=           0
         NFxFlg=           0 DoJE=T BraDBF=F KetDBF=T FulRan=T
         wScrn=  0.000000 ICntrl=     500 IOpCl=  0 I1Cent=   200000004 NGrid=           0
         NMat0=    1 NMatS0=      1 NMatT0=    0 NMatD0=    1 NMtDS0=    0 NMtDT0=    0
 Petite list used in FoFCou.
 Requested convergence on RMS density matrix=1.00D-08 within 128 cycles.
 Requested convergence on MAX density matrix=1.00D-06.
 Requested convergence on             energy=1.00D-06.
 No special actions if energy rises.
 Integral accuracy reduced to 1.0D-05 until final iterations.
 EnCoef did     2 forward-backward iterations
 Initial convergence to 1.0D-05 achieved.  Increase integral accuracy.
 SCF Done:  E(RB3LYP) =  -961.571461286     A.U. after   11 cycles
            NFock= 11  Conv=0.63D-08     -V/T= 2.0046
 Calling FoFJK, ICntrl=      2127 FMM=F ISym2X=0 I1Cent= 0 IOpClX= 0 NMat=1 NMatS=1 NMatT=0.
 ***** Axes restored to original set *****
 -------------------------------------------------------------------
 Center     Atomic                   Forces (Hartrees/Bohr)
 Number     Number              X              Y              Z
 -------------------------------------------------------------------
      1       16           0.000300769   -0.000010404   -0.000032514
      2        8          -0.000390881    0.005661662    0.001832781
      3        8          -0.000391207   -0.001244614   -0.005791640
      4        8          -0.000379428   -0.004425211    0.003999765
      5        6           0.001117181   -0.000008392    0.000036766
      6        9          -0.000076231    0.000466687   -0.000429753
      7        9          -0.000092616    0.000132234    0.000570233
      8        9          -0.000087587   -0.000571962   -0.000185638
 -------------------------------------------------------------------
 Cartesian Forces:  Max     0.005791640 RMS     0.002131177

 GradGradGradGradGradGradGradGradGradGradGradGradGradGradGradGradGradGrad
 Berny optimization.
 Using GEDIIS/GDIIS optimizer.
 FormGI is forming the generalized inverse of G from B-inverse, IUseBI=4.
 Internal  Forces:  Max     0.005907581 RMS     0.002057468
 Search for a local minimum.
 Step number   2 out of a maximum of   38
 All quantities printed in internal units (Hartrees-Bohrs-Radians)
 Mixed Optimization -- RFO/linear search
 Update second derivatives using D2CorX and points    1    2
 DE= -1.01D-03 DEPred=-8.10D-04 R= 1.25D+00
 TightC=F SS=  1.41D+00  RLast= 5.21D-02 DXNew= 5.0454D-01 1.5641D-01
 Trust test= 1.25D+00 RLast= 5.21D-02 DXMaxT set to 3.00D-01
 ITU=  1  0
 Use linear search instead of GDIIS.
     Eigenvalues ---    0.00230   0.08186   0.08187   0.10891   0.10891
     Eigenvalues ---    0.19820   0.24884   0.25000   0.25000   0.25000
     Eigenvalues ---    0.25000   0.26973   0.54664   0.54798   0.54829
     Eigenvalues ---    0.63610   0.85905   0.85936
 RFO step:  Lambda=-1.45951327D-04 EMin= 2.29998505D-03
 Quartic linear search produced a step of  0.30092.
 Iteration  1 RMS(Cart)=  0.00674162 RMS(Int)=  0.00005192
 Iteration  2 RMS(Cart)=  0.00006226 RMS(Int)=  0.00002747
 Iteration  3 RMS(Cart)=  0.00000001 RMS(Int)=  0.00002747
 Variable       Old X    -DE/DX   Delta X   Delta X   Delta X     New X
                                 (Linear)    (Quad)   (Total)
    R1        2.76417  -0.00590  -0.00652  -0.00420  -0.01072   2.75345
    R2        2.76402  -0.00588  -0.00649  -0.00417  -0.01066   2.75335
    R3        2.76410  -0.00591  -0.00652  -0.00421  -0.01072   2.75338
    R4        3.52698  -0.00086  -0.00845   0.00146  -0.00698   3.52000
    R5        2.54199  -0.00056  -0.00338   0.00119  -0.00219   2.53980
    R6        2.54181  -0.00051  -0.00334   0.00127  -0.00207   2.53974
    R7        2.54197  -0.00053  -0.00336   0.00124  -0.00212   2.53985
    A1        2.01945  -0.00112   0.00083  -0.00648  -0.00572   2.01374
    A2        2.01948  -0.00112   0.00081  -0.00647  -0.00573   2.01374
    A3        1.78250   0.00164  -0.00117   0.00947   0.00825   1.79075
    A4        2.01943  -0.00112   0.00084  -0.00651  -0.00574   2.01368
    A5        1.78258   0.00163  -0.00123   0.00944   0.00816   1.79074
    A6        1.78250   0.00165  -0.00118   0.00953   0.00831   1.79081
    A7        1.95024   0.00035  -0.00108   0.00265   0.00157   1.95181
    A8        1.95028   0.00036  -0.00107   0.00272   0.00165   1.95193
    A9        1.95025   0.00036  -0.00102   0.00272   0.00169   1.95194
   A10        1.86930  -0.00038   0.00117  -0.00294  -0.00177   1.86753
   A11        1.86948  -0.00038   0.00113  -0.00289  -0.00176   1.86772
   A12        1.86942  -0.00039   0.00113  -0.00291  -0.00178   1.86764
    D1        1.04831   0.00000  -0.00019   0.00097   0.00078   1.04909
    D2       -1.04596   0.00000  -0.00019   0.00101   0.00082  -1.04514
    D3       -3.14039   0.00000  -0.00019   0.00098   0.00079  -3.13960
    D4       -1.04609   0.00000  -0.00018   0.00097   0.00079  -1.04530
    D5       -3.14037   0.00000  -0.00019   0.00102   0.00083  -3.13953
    D6        1.04839   0.00000  -0.00019   0.00099   0.00080   1.04919
    D7       -3.14047   0.00000  -0.00019   0.00100   0.00081  -3.13966
    D8        1.04844   0.00000  -0.00019   0.00105   0.00085   1.04929
    D9       -1.04599   0.00000  -0.00019   0.00101   0.00082  -1.04517
         Item               Value     Threshold  Converged?
 Maximum Force            0.005908     0.000450     NO 
 RMS     Force            0.002057     0.000300     NO 
 Maximum Displacement     0.014861     0.001800     NO 
 RMS     Displacement     0.006715     0.001200     NO 
 Predicted change in Energy=-1.337944D-04
 GradGradGradGradGradGradGradGradGradGradGradGradGradGradGradGradGradGrad

                          Input orientation:                          
 ---------------------------------------------------------------------
 Center     Atomic      Atomic             Coordinates (Angstroms)
 Number     Number       Type             X           Y           Z
 ---------------------------------------------------------------------
      1         16           0       -0.572791    0.373807   -0.000066
      2          8           0       -0.255057   -0.979193   -0.437639
      3          8           0       -0.254774    0.671319    1.390342
      4          8           0       -0.254772    1.429179   -0.952945
      5          6           0       -2.435494    0.373997    0.000071
      6          9           0       -2.935311   -0.550378    0.837958
      7          9           0       -2.935527    0.110483   -1.219267
      8          9           0       -2.935304    1.561859    0.381636
 ---------------------------------------------------------------------
                    Distance matrix (angstroms):
                    1          2          3          4          5
     1  S    0.000000
     2  O    1.457063   0.000000
     3  O    1.457012   2.462865   0.000000
     4  O    1.457026   2.462883   2.462792   0.000000
     5  C    1.862703   2.603271   2.603228   2.603305   0.000000
     6  F    2.671685   2.999132   2.997157   3.783023   1.344002
     7  F    2.671761   2.997208   3.782993   2.999388   1.343971
     8  F    2.671821   3.783105   2.999298   2.997326   1.344031
                    6          7          8
     6  F    0.000000
     7  F    2.160767   0.000000
     8  F    2.160966   2.160876   0.000000
 Stoichiometry    CF3O3S(1-)
 Framework group  C1[X(CF3O3S)]
 Deg. of freedom    18
 Full point group                 C1      NOp   1
 Largest Abelian subgroup         C1      NOp   1
 Largest concise Abelian subgroup C1      NOp   1
                         Standard orientation:                         
 ---------------------------------------------------------------------
 Center     Atomic      Atomic             Coordinates (Angstroms)
 Number     Number       Type             X           Y           Z
 ---------------------------------------------------------------------
      1         16           0       -0.922410   -0.000007   -0.000008
      2          8           0       -1.240289    1.396381   -0.268502
      3          8           0       -1.240306   -0.465654    1.343495
      4          8           0       -1.240407   -0.930714   -1.074989
      5          6           0        0.940293   -0.000041   -0.000005
      6          9           0        1.440090    0.814762    0.944791
      7          9           0        1.440218    0.410922   -1.177902
      8          9           0        1.440229   -1.225656    0.233125
 ---------------------------------------------------------------------
 Rotational constants (GHZ):      2.7210512      1.5666832      1.5666165
 Standard basis: GTBas3 (6D, 7F)
 There are   252 symmetry adapted cartesian basis functions of A   symmetry.
 There are   228 symmetry adapted basis functions of A   symmetry.
   228 basis functions,   376 primitive gaussians,   252 cartesian basis functions
    37 alpha electrons       37 beta electrons
       nuclear repulsion energy       552.5792848079 Hartrees.
 NAtoms=    8 NActive=    8 NUniq=    8 SFac= 1.00D+00 NAtFMM=   60 NAOKFM=F Big=F
 Integral buffers will be    131072 words long.
 Raffenetti 2 integral format.
 Two-electron integral symmetry is turned on.
 One-electron integrals computed using PRISM.
 NBasis=   228 RedAO= T EigKep=  1.59D-03  NBF=   228
 NBsUse=   228 1.00D-06 EigRej= -1.00D+00 NBFU=   228
 Initial guess from the checkpoint file:  "CF3SO3H-Ag4.chk"
 B after Tr=     0.000000    0.000000    0.000000
         Rot=    0.998293   -0.058409   -0.000007   -0.000008 Ang=  -6.70 deg.
 Requested convergence on RMS density matrix=1.00D-08 within 128 cycles.
 Requested convergence on MAX density matrix=1.00D-06.
 Requested convergence on             energy=1.00D-06.
 No special actions if energy rises.
 SCF Done:  E(RB3LYP) =  -961.571528763     A.U. after    9 cycles
            NFock=  9  Conv=0.36D-08     -V/T= 2.0045
 Calling FoFJK, ICntrl=      2127 FMM=F ISym2X=0 I1Cent= 0 IOpClX= 0 NMat=1 NMatS=1 NMatT=0.
 ***** Axes restored to original set *****
 -------------------------------------------------------------------
 Center     Atomic                   Forces (Hartrees/Bohr)
 Number     Number              X              Y              Z
 -------------------------------------------------------------------
      1       16           0.003868441   -0.000055795   -0.000057649
      2        8          -0.001325063   -0.000869968   -0.000268567
      3        8          -0.001291151    0.000205437    0.001026531
      4        8          -0.001306118    0.000724799   -0.000680608
      5        6          -0.000015458   -0.000012031    0.000000158
      6        9           0.000015478   -0.000526758    0.000551342
      7        9           0.000014724   -0.000131637   -0.000809397
      8        9           0.000039146    0.000665953    0.000238190
 -------------------------------------------------------------------
 Cartesian Forces:  Max     0.003868441 RMS     0.001015917

 GradGradGradGradGradGradGradGradGradGradGradGradGradGradGradGradGradGrad
 Berny optimization.
 Using GEDIIS/GDIIS optimizer.
 FormGI is forming the generalized inverse of G from B-inverse, IUseBI=4.
 Internal  Forces:  Max     0.002747262 RMS     0.001155367
 Search for a local minimum.
 Step number   3 out of a maximum of   38
 All quantities printed in internal units (Hartrees-Bohrs-Radians)
 Mixed Optimization -- RFO/linear search
 Update second derivatives using D2CorX and points    1    2    3
 DE= -6.75D-05 DEPred=-1.34D-04 R= 5.04D-01
 TightC=F SS=  1.41D+00  RLast= 2.70D-02 DXNew= 5.0454D-01 8.1140D-02
 Trust test= 5.04D-01 RLast= 2.70D-02 DXMaxT set to 3.00D-01
 ITU=  1  1  0
 Use linear search instead of GDIIS.
     Eigenvalues ---    0.00230   0.08158   0.08160   0.10770   0.10771
     Eigenvalues ---    0.19900   0.25000   0.25000   0.25000   0.25000
     Eigenvalues ---    0.25146   0.35408   0.54783   0.54794   0.57012
     Eigenvalues ---    0.59650   0.85909   0.85941
 RFO step:  Lambda=-4.16540303D-05 EMin= 2.29993590D-03
 Quartic linear search produced a step of -0.32691.
 Iteration  1 RMS(Cart)=  0.00515919 RMS(Int)=  0.00002404
 Iteration  2 RMS(Cart)=  0.00002683 RMS(Int)=  0.00000813
 Iteration  3 RMS(Cart)=  0.00000000 RMS(Int)=  0.00000813
 Variable       Old X    -DE/DX   Delta X   Delta X   Delta X     New X
                                 (Linear)    (Quad)   (Total)
    R1        2.75345   0.00060   0.00350  -0.00395  -0.00044   2.75301
    R2        2.75335   0.00074   0.00349  -0.00381  -0.00032   2.75303
    R3        2.75338   0.00069   0.00351  -0.00387  -0.00037   2.75301
    R4        3.52000  -0.00005   0.00228  -0.00298  -0.00070   3.51930
    R5        2.53980   0.00070   0.00072   0.00018   0.00090   2.54069
    R6        2.53974   0.00075   0.00068   0.00030   0.00098   2.54072
    R7        2.53985   0.00064   0.00069   0.00013   0.00083   2.54067
    A1        2.01374   0.00192   0.00187   0.00273   0.00458   2.01831
    A2        2.01374   0.00193   0.00187   0.00275   0.00461   2.01835
    A3        1.79075  -0.00274  -0.00270  -0.00395  -0.00666   1.78408
    A4        2.01368   0.00195   0.00188   0.00286   0.00472   2.01840
    A5        1.79074  -0.00272  -0.00267  -0.00392  -0.00660   1.78414
    A6        1.79081  -0.00275  -0.00272  -0.00392  -0.00666   1.78415
    A7        1.95181  -0.00035  -0.00051  -0.00016  -0.00068   1.95114
    A8        1.95193  -0.00037  -0.00054  -0.00013  -0.00067   1.95126
    A9        1.95194  -0.00036  -0.00055  -0.00024  -0.00079   1.95115
   A10        1.86753   0.00042   0.00058   0.00046   0.00104   1.86857
   A11        1.86772   0.00035   0.00058  -0.00004   0.00054   1.86826
   A12        1.86764   0.00038   0.00058   0.00015   0.00073   1.86837
    D1        1.04909   0.00002  -0.00026  -0.00008  -0.00033   1.04876
    D2       -1.04514  -0.00002  -0.00027  -0.00046  -0.00073  -1.04587
    D3       -3.13960  -0.00001  -0.00026  -0.00040  -0.00066  -3.14026
    D4       -1.04530   0.00003  -0.00026  -0.00002  -0.00028  -1.04558
    D5       -3.13953  -0.00001  -0.00027  -0.00041  -0.00068  -3.14021
    D6        1.04919  -0.00001  -0.00026  -0.00034  -0.00061   1.04858
    D7       -3.13966   0.00002  -0.00026  -0.00011  -0.00038  -3.14004
    D8        1.04929  -0.00003  -0.00028  -0.00050  -0.00078   1.04851
    D9       -1.04517  -0.00002  -0.00027  -0.00044  -0.00071  -1.04588
         Item               Value     Threshold  Converged?
 Maximum Force            0.002747     0.000450     NO 
 RMS     Force            0.001155     0.000300     NO 
 Maximum Displacement     0.012140     0.001800     NO 
 RMS     Displacement     0.005178     0.001200     NO 
 Predicted change in Energy=-4.250989D-05
 GradGradGradGradGradGradGradGradGradGradGradGradGradGradGradGradGradGrad

                          Input orientation:                          
 ---------------------------------------------------------------------
 Center     Atomic      Atomic             Coordinates (Angstroms)
 Number     Number       Type             X           Y           Z
 ---------------------------------------------------------------------
      1         16           0       -0.569684    0.373819   -0.000065
      2          8           0       -0.261401   -0.981043   -0.437857
      3          8           0       -0.261160    0.672020    1.392156
      4          8           0       -0.261197    1.430329   -0.954516
      5          6           0       -2.432016    0.373918    0.000012
      6          9           0       -2.931148   -0.551127    0.838330
      7          9           0       -2.931358    0.110794   -1.220264
      8          9           0       -2.931068    1.562363    0.382292
 ---------------------------------------------------------------------
                    Distance matrix (angstroms):
                    1          2          3          4          5
     1  S    0.000000
     2  O    1.456829   0.000000
     3  O    1.456842   2.466083   0.000000
     4  O    1.456830   2.466100   2.466151   0.000000
     5  C    1.862332   2.596000   2.596064   2.596071   0.000000
     6  F    2.671131   2.990155   2.988586   3.777447   1.344477
     7  F    2.671250   2.988803   3.777522   2.990244   1.344489
     8  F    2.671136   3.777390   2.990141   2.988762   1.344467
                    6          7          8
     6  F    0.000000
     7  F    2.162395   0.000000
     8  F    2.162131   2.162230   0.000000
 Stoichiometry    CF3O3S(1-)
 Framework group  C1[X(CF3O3S)]
 Deg. of freedom    18
 Full point group                 C1      NOp   1
 Largest Abelian subgroup         C1      NOp   1
 Largest concise Abelian subgroup C1      NOp   1
                         Standard orientation:                         
 ---------------------------------------------------------------------
 Center     Atomic      Atomic             Coordinates (Angstroms)
 Number     Number       Type             X           Y           Z
 ---------------------------------------------------------------------
      1         16           0       -0.925101   -0.000018    0.000016
      2          8           0       -1.233530   -0.179426   -1.412441
      3          8           0       -1.233512    1.312954    0.550813
      4          8           0       -1.233554   -1.133534    0.861614
      5          6           0        0.937232   -0.000044   -0.000055
      6          9           0        1.436334    0.995002   -0.753977
      7          9           0        1.436475   -1.150545   -0.484570
      8          9           0        1.436411    0.155609    1.238567
 ---------------------------------------------------------------------
 Rotational constants (GHZ):      2.7156281      1.5722916      1.5722164
 Standard basis: GTBas3 (6D, 7F)
 There are   252 symmetry adapted cartesian basis functions of A   symmetry.
 There are   228 symmetry adapted basis functions of A   symmetry.
   228 basis functions,   376 primitive gaussians,   252 cartesian basis functions
    37 alpha electrons       37 beta electrons
       nuclear repulsion energy       552.8579069965 Hartrees.
 NAtoms=    8 NActive=    8 NUniq=    8 SFac= 1.00D+00 NAtFMM=   60 NAOKFM=F Big=F
 Integral buffers will be    131072 words long.
 Raffenetti 2 integral format.
 Two-electron integral symmetry is turned on.
 One-electron integrals computed using PRISM.
 NBasis=   228 RedAO= T EigKep=  1.59D-03  NBF=   228
 NBsUse=   228 1.00D-06 EigRej= -1.00D+00 NBFU=   228
 Initial guess from the checkpoint file:  "CF3SO3H-Ag4.chk"
 B after Tr=     0.000000    0.000000    0.000000
         Rot=    0.729145    0.684359    0.000003   -0.000004 Ang=  86.37 deg.
 Requested convergence on RMS density matrix=1.00D-08 within 128 cycles.
 Requested convergence on MAX density matrix=1.00D-06.
 Requested convergence on             energy=1.00D-06.
 No special actions if energy rises.
 SCF Done:  E(RB3LYP) =  -961.571559566     A.U. after    8 cycles
            NFock=  8  Conv=0.83D-08     -V/T= 2.0045
 Calling FoFJK, ICntrl=      2127 FMM=F ISym2X=0 I1Cent= 0 IOpClX= 0 NMat=1 NMatS=1 NMatT=0.
 ***** Axes restored to original set *****
 -------------------------------------------------------------------
 Center     Atomic                   Forces (Hartrees/Bohr)
 Number     Number              X              Y              Z
 -------------------------------------------------------------------
      1       16          -0.001359292   -0.000019911    0.000003464
      2        8           0.000579837   -0.000682475   -0.000200004
      3        8           0.000609365    0.000135990    0.000697161
      4        8           0.000578677    0.000564310   -0.000497873
      5        6           0.000386529    0.000029416    0.000027288
      6        9          -0.000279105   -0.000260689    0.000201709
      7        9          -0.000276764   -0.000077015   -0.000313865
      8        9          -0.000239246    0.000310374    0.000082121
 -------------------------------------------------------------------
 Cartesian Forces:  Max     0.001359292 RMS     0.000463053

 GradGradGradGradGradGradGradGradGradGradGradGradGradGradGradGradGradGrad
 Berny optimization.
 Using GEDIIS/GDIIS optimizer.
 FormGI is forming the generalized inverse of G from B-inverse, IUseBI=4.
 Internal  Forces:  Max     0.000858274 RMS     0.000448444
 Search for a local minimum.
 Step number   4 out of a maximum of   38
 All quantities printed in internal units (Hartrees-Bohrs-Radians)
 Mixed Optimization -- En-DIIS/RFO-DIIS
 Update second derivatives using D2CorX and points    1    2    3    4
 DE= -3.08D-05 DEPred=-4.25D-05 R= 7.25D-01
 TightC=F SS=  1.41D+00  RLast= 1.44D-02 DXNew= 5.0454D-01 4.3142D-02
 Trust test= 7.25D-01 RLast= 1.44D-02 DXMaxT set to 3.00D-01
 ITU=  1  1  1  0
 Use linear search instead of GDIIS.
     Eigenvalues ---    0.00230   0.08169   0.08174   0.10867   0.10868
     Eigenvalues ---    0.20648   0.24984   0.25000   0.25000   0.25000
     Eigenvalues ---    0.25045   0.52134   0.54783   0.54796   0.57469
     Eigenvalues ---    0.61757   0.85908   0.85939
 RFO step:  Lambda=-4.74738899D-06 EMin= 2.30038501D-03
 Quartic linear search produced a step of -0.21582.
 Iteration  1 RMS(Cart)=  0.00171751 RMS(Int)=  0.00000300
 Iteration  2 RMS(Cart)=  0.00000094 RMS(Int)=  0.00000286
 Variable       Old X    -DE/DX   Delta X   Delta X   Delta X     New X
                                 (Linear)    (Quad)   (Total)
    R1        2.75301   0.00081   0.00010   0.00128   0.00137   2.75438
    R2        2.75303   0.00083   0.00007   0.00131   0.00137   2.75441
    R3        2.75301   0.00086   0.00008   0.00133   0.00140   2.75442
    R4        3.51930   0.00041   0.00015   0.00157   0.00173   3.52102
    R5        2.54069   0.00041  -0.00019   0.00079   0.00059   2.54129
    R6        2.54072   0.00040  -0.00021   0.00079   0.00058   2.54129
    R7        2.54067   0.00038  -0.00018   0.00074   0.00056   2.54123
    A1        2.01831  -0.00056  -0.00099  -0.00006  -0.00104   2.01728
    A2        2.01835  -0.00052  -0.00099   0.00012  -0.00087   2.01748
    A3        1.78408   0.00078   0.00144  -0.00007   0.00137   1.78545
    A4        2.01840  -0.00055  -0.00102   0.00005  -0.00096   2.01744
    A5        1.78414   0.00083   0.00143   0.00006   0.00149   1.78563
    A6        1.78415   0.00075   0.00144  -0.00016   0.00128   1.78544
    A7        1.95114   0.00017   0.00015   0.00017   0.00032   1.95145
    A8        1.95126   0.00015   0.00014   0.00007   0.00022   1.95148
    A9        1.95115   0.00012   0.00017  -0.00001   0.00016   1.95131
   A10        1.86857  -0.00019  -0.00022  -0.00013  -0.00035   1.86822
   A11        1.86826  -0.00014  -0.00012  -0.00002  -0.00013   1.86813
   A12        1.86837  -0.00015  -0.00016  -0.00011  -0.00027   1.86810
    D1        1.04876  -0.00002   0.00007  -0.00133  -0.00126   1.04750
    D2       -1.04587   0.00000   0.00016  -0.00133  -0.00118  -1.04705
    D3       -3.14026   0.00000   0.00014  -0.00124  -0.00109  -3.14136
    D4       -1.04558  -0.00001   0.00006  -0.00126  -0.00120  -1.04678
    D5       -3.14021   0.00000   0.00015  -0.00127  -0.00112  -3.14134
    D6        1.04858   0.00001   0.00013  -0.00117  -0.00104   1.04754
    D7       -3.14004  -0.00001   0.00008  -0.00129  -0.00121  -3.14125
    D8        1.04851   0.00000   0.00017  -0.00129  -0.00113   1.04739
    D9       -1.04588   0.00001   0.00015  -0.00119  -0.00104  -1.04692
         Item               Value     Threshold  Converged?
 Maximum Force            0.000858     0.000450     NO 
 RMS     Force            0.000448     0.000300     NO 
 Maximum Displacement     0.003948     0.001800     NO 
 RMS     Displacement     0.001718     0.001200     NO 
 Predicted change in Energy=-5.029572D-06
 GradGradGradGradGradGradGradGradGradGradGradGradGradGradGradGradGradGrad

                          Input orientation:                          
 ---------------------------------------------------------------------
 Center     Atomic      Atomic             Coordinates (Angstroms)
 Number     Number       Type             X           Y           Z
 ---------------------------------------------------------------------
      1         16           0       -0.569872    0.373826   -0.000040
      2          8           0       -0.259473   -0.981537   -0.437202
      3          8           0       -0.259071    0.672747    1.392281
      4          8           0       -0.259409    1.430125   -0.955219
      5          6           0       -2.433118    0.373909    0.000036
      6          9           0       -2.932757   -0.551847    0.837771
      7          9           0       -2.932840    0.111532   -1.220582
      8          9           0       -2.932491    1.562319    0.383044
 ---------------------------------------------------------------------
                    Distance matrix (angstroms):
                    1          2          3          4          5
     1  S    0.000000
     2  O    1.457555   0.000000
     3  O    1.457570   2.466508   0.000000
     4  O    1.457574   2.466669   2.466653   0.000000
     5  C    1.863245   2.598681   2.598871   2.598676   0.000000
     6  F    2.672456   2.992764   2.992609   3.780187   1.344791
     7  F    2.672477   2.992554   3.780351   2.992714   1.344794
     8  F    2.672309   3.780084   2.992837   2.992289   1.344763
                    6          7          8
     6  F    0.000000
     7  F    2.162612   0.000000
     8  F    2.162515   2.162498   0.000000
 Stoichiometry    CF3O3S(1-)
 Framework group  C1[X(CF3O3S)]
 Deg. of freedom    18
 Full point group                 C1      NOp   1
 Largest Abelian subgroup         C1      NOp   1
 Largest concise Abelian subgroup C1      NOp   1
                         Standard orientation:                         
 ---------------------------------------------------------------------
 Center     Atomic      Atomic             Coordinates (Angstroms)
 Number     Number       Type             X           Y           Z
 ---------------------------------------------------------------------
      1         16           0       -0.924964   -0.000045   -0.000034
      2          8           0       -1.235445    0.515842   -1.327411
      3          8           0       -1.235760    0.891619    1.110304
      4          8           0       -1.235353   -1.407565    0.216922
      5          6           0        0.938281    0.000049   -0.000002
      6          9           0        1.437854    1.234098   -0.189774
      7          9           0        1.437998   -0.781442   -0.973668
      8          9           0        1.437726   -0.452516    1.163668
 ---------------------------------------------------------------------
 Rotational constants (GHZ):      2.7147070      1.5697430      1.5696833
 Standard basis: GTBas3 (6D, 7F)
 There are   252 symmetry adapted cartesian basis functions of A   symmetry.
 There are   228 symmetry adapted basis functions of A   symmetry.
   228 basis functions,   376 primitive gaussians,   252 cartesian basis functions
    37 alpha electrons       37 beta electrons
       nuclear repulsion energy       552.5701597086 Hartrees.
 NAtoms=    8 NActive=    8 NUniq=    8 SFac= 1.00D+00 NAtFMM=   60 NAOKFM=F Big=F
 Integral buffers will be    131072 words long.
 Raffenetti 2 integral format.
 Two-electron integral symmetry is turned on.
 One-electron integrals computed using PRISM.
 NBasis=   228 RedAO= T EigKep=  1.59D-03  NBF=   228
 NBsUse=   228 1.00D-06 EigRej= -1.00D+00 NBFU=   228
 Initial guess from the checkpoint file:  "CF3SO3H-Ag4.chk"
 B after Tr=     0.000000    0.000000    0.000000
         Rot=    0.969347   -0.245697    0.000026   -0.000025 Ang= -28.45 deg.
 Requested convergence on RMS density matrix=1.00D-08 within 128 cycles.
 Requested convergence on MAX density matrix=1.00D-06.
 Requested convergence on             energy=1.00D-06.
 No special actions if energy rises.
 SCF Done:  E(RB3LYP) =  -961.571564595     A.U. after    8 cycles
            NFock=  8  Conv=0.49D-08     -V/T= 2.0045
 Calling FoFJK, ICntrl=      2127 FMM=F ISym2X=0 I1Cent= 0 IOpClX= 0 NMat=1 NMatS=1 NMatT=0.
 ***** Axes restored to original set *****
 -------------------------------------------------------------------
 Center     Atomic                   Forces (Hartrees/Bohr)
 Number     Number              X              Y              Z
 -------------------------------------------------------------------
      1       16           0.000014672    0.000014575   -0.000001108
      2        8           0.000030159    0.000011028   -0.000041882
      3        8          -0.000017556    0.000016334   -0.000019596
      4        8          -0.000004486   -0.000072491    0.000039705
      5        6           0.000101716    0.000015012    0.000009941
      6        9          -0.000020252   -0.000021702   -0.000002405
      7        9          -0.000038723   -0.000052267   -0.000035643
      8        9          -0.000065530    0.000089512    0.000050987
 -------------------------------------------------------------------
 Cartesian Forces:  Max     0.000101716 RMS     0.000042323

 GradGradGradGradGradGradGradGradGradGradGradGradGradGradGradGradGradGrad
 Berny optimization.
 Using GEDIIS/GDIIS optimizer.
 FormGI is forming the generalized inverse of G from B-inverse, IUseBI=4.
 Internal  Forces:  Max     0.000118482 RMS     0.000038790
 Search for a local minimum.
 Step number   5 out of a maximum of   38
 All quantities printed in internal units (Hartrees-Bohrs-Radians)
 Mixed Optimization -- En-DIIS/RFO-DIIS
 Swapping is turned off.
 Update second derivatives using D2CorX and points    1    2    3    4    5
 DE= -5.03D-06 DEPred=-5.03D-06 R= 1.00D+00
 TightC=F SS=  1.41D+00  RLast= 5.51D-03 DXNew= 5.0454D-01 1.6531D-02
 Trust test= 1.00D+00 RLast= 5.51D-03 DXMaxT set to 3.00D-01
 ITU=  1  1  1  1  0
     Eigenvalues ---    0.00230   0.08157   0.08181   0.10847   0.10856
     Eigenvalues ---    0.20397   0.24855   0.24997   0.25000   0.25001
     Eigenvalues ---    0.25098   0.51888   0.53621   0.54785   0.55661
     Eigenvalues ---    0.63155   0.85934   0.86161
 En-DIIS/RFO-DIIS IScMMF=        0 using points:     5    4
 RFO step:  Lambda=-7.36227079D-08.
 DidBck=F Rises=F RFO-DIIS coefs:    1.01343   -0.01343
 Iteration  1 RMS(Cart)=  0.00040877 RMS(Int)=  0.00000009
 Iteration  2 RMS(Cart)=  0.00000009 RMS(Int)=  0.00000002
 Variable       Old X    -DE/DX   Delta X   Delta X   Delta X     New X
                                 (Linear)    (Quad)   (Total)
    R1        2.75438   0.00001   0.00002   0.00000   0.00001   2.75439
    R2        2.75441  -0.00002   0.00002  -0.00004  -0.00002   2.75439
    R3        2.75442  -0.00008   0.00002  -0.00011  -0.00009   2.75432
    R4        3.52102   0.00002   0.00002   0.00010   0.00012   3.52115
    R5        2.54129   0.00002   0.00001   0.00004   0.00005   2.54134
    R6        2.54129   0.00006   0.00001   0.00011   0.00012   2.54142
    R7        2.54123   0.00012   0.00001   0.00022   0.00023   2.54147
    A1        2.01728   0.00002  -0.00001   0.00022   0.00021   2.01749
    A2        2.01748  -0.00005  -0.00001  -0.00024  -0.00025   2.01723
    A3        1.78545   0.00007   0.00002   0.00022   0.00024   1.78569
    A4        2.01744   0.00000  -0.00001   0.00000  -0.00002   2.01743
    A5        1.78563  -0.00004   0.00002  -0.00019  -0.00017   1.78546
    A6        1.78544   0.00003   0.00002   0.00000   0.00002   1.78546
    A7        1.95145   0.00001   0.00000  -0.00007  -0.00006   1.95139
    A8        1.95148   0.00002   0.00000   0.00007   0.00007   1.95155
    A9        1.95131   0.00004   0.00000   0.00024   0.00025   1.95156
   A10        1.86822  -0.00004   0.00000  -0.00032  -0.00032   1.86789
   A11        1.86813  -0.00003   0.00000  -0.00010  -0.00010   1.86803
   A12        1.86810  -0.00001   0.00000   0.00015   0.00015   1.86825
    D1        1.04750   0.00001  -0.00002   0.00062   0.00060   1.04811
    D2       -1.04705   0.00004  -0.00002   0.00103   0.00102  -1.04603
    D3       -3.14136   0.00001  -0.00001   0.00062   0.00061  -3.14075
    D4       -1.04678  -0.00002  -0.00002   0.00037   0.00035  -1.04643
    D5       -3.14134   0.00001  -0.00002   0.00078   0.00076  -3.14057
    D6        1.04754  -0.00002  -0.00001   0.00037   0.00035   1.04789
    D7       -3.14125  -0.00001  -0.00002   0.00044   0.00043  -3.14082
    D8        1.04739   0.00002  -0.00002   0.00085   0.00084   1.04822
    D9       -1.04692  -0.00001  -0.00001   0.00044   0.00043  -1.04649
         Item               Value     Threshold  Converged?
 Maximum Force            0.000118     0.000450     YES
 RMS     Force            0.000039     0.000300     YES
 Maximum Displacement     0.001052     0.001800     YES
 RMS     Displacement     0.000409     0.001200     YES
 Predicted change in Energy=-7.797827D-08
 Optimization completed.
    -- Stationary point found.
                           ----------------------------
                           !   Optimized Parameters   !
                           ! (Angstroms and Degrees)  !
 --------------------------                            --------------------------
 ! Name  Definition              Value          Derivative Info.                !
 --------------------------------------------------------------------------------
 ! R1    R(1,2)                  1.4576         -DE/DX =    0.0                 !
 ! R2    R(1,3)                  1.4576         -DE/DX =    0.0                 !
 ! R3    R(1,4)                  1.4576         -DE/DX =   -0.0001              !
 ! R4    R(1,5)                  1.8632         -DE/DX =    0.0                 !
 ! R5    R(5,6)                  1.3448         -DE/DX =    0.0                 !
 ! R6    R(5,7)                  1.3448         -DE/DX =    0.0001              !
 ! R7    R(5,8)                  1.3448         -DE/DX =    0.0001              !
 ! A1    A(2,1,3)              115.5815         -DE/DX =    0.0                 !
 ! A2    A(2,1,4)              115.5931         -DE/DX =    0.0                 !
 ! A3    A(2,1,5)              102.299          -DE/DX =    0.0001              !
 ! A4    A(3,1,4)              115.591          -DE/DX =    0.0                 !
 ! A5    A(3,1,5)              102.309          -DE/DX =    0.0                 !
 ! A6    A(4,1,5)              102.2979         -DE/DX =    0.0                 !
 ! A7    A(1,5,6)              111.8101         -DE/DX =    0.0                 !
 ! A8    A(1,5,7)              111.8113         -DE/DX =    0.0                 !
 ! A9    A(1,5,8)              111.8019         -DE/DX =    0.0                 !
 ! A10   A(6,5,7)              107.0408         -DE/DX =    0.0                 !
 ! A11   A(6,5,8)              107.0357         -DE/DX =    0.0                 !
 ! A12   A(7,5,8)              107.0343         -DE/DX =    0.0                 !
 ! D1    D(2,1,5,6)             60.0176         -DE/DX =    0.0                 !
 ! D2    D(2,1,5,7)            -59.9915         -DE/DX =    0.0                 !
 ! D3    D(2,1,5,8)           -179.9865         -DE/DX =    0.0                 !
 ! D4    D(3,1,5,6)            -59.9763         -DE/DX =    0.0                 !
 ! D5    D(3,1,5,7)           -179.9853         -DE/DX =    0.0                 !
 ! D6    D(3,1,5,8)             60.0197         -DE/DX =    0.0                 !
 ! D7    D(4,1,5,6)           -179.9801         -DE/DX =    0.0                 !
 ! D8    D(4,1,5,7)             60.0108         -DE/DX =    0.0                 !
 ! D9    D(4,1,5,8)            -59.9841         -DE/DX =    0.0                 !
 --------------------------------------------------------------------------------
 GradGradGradGradGradGradGradGradGradGradGradGradGradGradGradGradGradGrad

                          Input orientation:                          
 ---------------------------------------------------------------------
 Center     Atomic      Atomic             Coordinates (Angstroms)
 Number     Number       Type             X           Y           Z
 ---------------------------------------------------------------------
      1         16           0       -0.569872    0.373826   -0.000040
      2          8           0       -0.259473   -0.981537   -0.437202
      3          8           0       -0.259071    0.672747    1.392281
      4          8           0       -0.259409    1.430125   -0.955219
      5          6           0       -2.433118    0.373909    0.000036
      6          9           0       -2.932757   -0.551847    0.837771
      7          9           0       -2.932840    0.111532   -1.220582
      8          9           0       -2.932491    1.562319    0.383044
 ---------------------------------------------------------------------
                    Distance matrix (angstroms):
                    1          2          3          4          5
     1  S    0.000000
     2  O    1.457555   0.000000
     3  O    1.457570   2.466508   0.000000
     4  O    1.457574   2.466669   2.466653   0.000000
     5  C    1.863245   2.598681   2.598871   2.598676   0.000000
     6  F    2.672456   2.992764   2.992609   3.780187   1.344791
     7  F    2.672477   2.992554   3.780351   2.992714   1.344794
     8  F    2.672309   3.780084   2.992837   2.992289   1.344763
                    6          7          8
     6  F    0.000000
     7  F    2.162612   0.000000
     8  F    2.162515   2.162498   0.000000
 Stoichiometry    CF3O3S(1-)
 Framework group  C1[X(CF3O3S)]
 Deg. of freedom    18
 Full point group                 C1      NOp   1
 Largest Abelian subgroup         C1      NOp   1
 Largest concise Abelian subgroup C1      NOp   1
                         Standard orientation:                         
 ---------------------------------------------------------------------
 Center     Atomic      Atomic             Coordinates (Angstroms)
 Number     Number       Type             X           Y           Z
 ---------------------------------------------------------------------
      1         16           0       -0.924964   -0.000045   -0.000034
      2          8           0       -1.235445    0.515842   -1.327411
      3          8           0       -1.235760    0.891619    1.110304
      4          8           0       -1.235353   -1.407565    0.216922
      5          6           0        0.938281    0.000049   -0.000002
      6          9           0        1.437854    1.234098   -0.189774
      7          9           0        1.437998   -0.781442   -0.973668
      8          9           0        1.437726   -0.452516    1.163668
 ---------------------------------------------------------------------
 Rotational constants (GHZ):      2.7147070      1.5697430      1.5696833

 **********************************************************************

            Population analysis using the SCF density.

 **********************************************************************

 Orbital symmetries:
       Occupied  (A) (A) (A) (A) (A) (A) (A) (A) (A) (A) (A) (A)
                 (A) (A) (A) (A) (A) (A) (A) (A) (A) (A) (A) (A)
                 (A) (A) (A) (A) (A) (A) (A) (A) (A) (A) (A) (A)
                 (A)
       Virtual   (A) (A) (A) (A) (A) (A) (A) (A) (A) (A) (A) (A)
                 (A) (A) (A) (A) (A) (A) (A) (A) (A) (A) (A) (A)
                 (A) (A) (A) (A) (A) (A) (A) (A) (A) (A) (A) (A)
                 (A) (A) (A) (A) (A) (A) (A) (A) (A) (A) (A) (A)
                 (A) (A) (A) (A) (A) (A) (A) (A) (A) (A) (A) (A)
                 (A) (A) (A) (A) (A) (A) (A) (A) (A) (A) (A) (A)
                 (A) (A) (A) (A) (A) (A) (A) (A) (A) (A) (A) (A)
                 (A) (A) (A) (A) (A) (A) (A) (A) (A) (A) (A) (A)
                 (A) (A) (A) (A) (A) (A) (A) (A) (A) (A) (A) (A)
                 (A) (A) (A) (A) (A) (A) (A) (A) (A) (A) (A) (A)
                 (A) (A) (A) (A) (A) (A) (A) (A) (A) (A) (A) (A)
                 (A) (A) (A) (A) (A) (A) (A) (A) (A) (A) (A) (A)
                 (A) (A) (A) (A) (A) (A) (A) (A) (A) (A) (A) (A)
                 (A) (A) (A) (A) (A) (A) (A) (A) (A) (A) (A) (A)
                 (A) (A) (A) (A) (A) (A) (A) (A) (A) (A) (A) (A)
                 (A) (A) (A) (A) (A) (A) (A) (A) (A) (A) (A)
 The electronic state is 1-A.
 Alpha  occ. eigenvalues --  -88.89206 -24.56581 -24.56580 -24.56579 -18.92892
 Alpha  occ. eigenvalues --  -18.92891 -18.92890 -10.25101  -7.91288  -5.87892
 Alpha  occ. eigenvalues --   -5.87703  -5.87703  -1.14997  -1.06175  -1.06174
 Alpha  occ. eigenvalues --   -0.92898  -0.79415  -0.79414  -0.55375  -0.45699
 Alpha  occ. eigenvalues --   -0.42675  -0.42674  -0.35174  -0.30659  -0.30658
 Alpha  occ. eigenvalues --   -0.27194  -0.27193  -0.27186  -0.25737  -0.25736
 Alpha  occ. eigenvalues --   -0.24698  -0.15226  -0.15225  -0.12007  -0.12006
 Alpha  occ. eigenvalues --   -0.11084  -0.07159
 Alpha virt. eigenvalues --    0.28719   0.28723   0.29167   0.30489   0.37337
 Alpha virt. eigenvalues --    0.42813   0.42818   0.43946   0.46977   0.51135
 Alpha virt. eigenvalues --    0.51139   0.59074   0.62258   0.62266   0.69737
 Alpha virt. eigenvalues --    0.69742   0.78418   0.82220   0.82221   0.82550
 Alpha virt. eigenvalues --    0.90772   0.90774   0.94983   1.00390   1.00392
 Alpha virt. eigenvalues --    1.01797   1.03928   1.03931   1.07638   1.09397
 Alpha virt. eigenvalues --    1.09398   1.11129   1.11445   1.11445   1.13224
 Alpha virt. eigenvalues --    1.15243   1.15245   1.15826   1.18850   1.18854
 Alpha virt. eigenvalues --    1.20689   1.20690   1.20761   1.25417   1.25419
 Alpha virt. eigenvalues --    1.29055   1.32281   1.34040   1.34041   1.40674
 Alpha virt. eigenvalues --    1.41286   1.41296   1.46323   1.47310   1.47312
 Alpha virt. eigenvalues --    1.54358   1.54362   1.57262   1.58542   1.58549
 Alpha virt. eigenvalues --    1.60421   1.63232   1.65747   1.65749   1.68400
 Alpha virt. eigenvalues --    1.82686   1.82690   1.89020   1.92829   1.92831
 Alpha virt. eigenvalues --    1.93647   1.99431   2.06449   2.06452   2.18808
 Alpha virt. eigenvalues --    2.18823   2.25414   2.28491   2.28493   2.33534
 Alpha virt. eigenvalues --    2.33760   2.33762   2.46413   2.46420   2.46803
 Alpha virt. eigenvalues --    2.51638   2.80814   2.80816   2.84944   2.97996
 Alpha virt. eigenvalues --    2.97999   3.06942   3.30456   3.33447   3.40892
 Alpha virt. eigenvalues --    3.40897   3.49358   3.49362   3.63902   3.98526
 Alpha virt. eigenvalues --    3.98536   4.07593   4.17276   4.27060   4.28331
 Alpha virt. eigenvalues --    4.28336   4.33082   4.33085   4.34359   4.34362
 Alpha virt. eigenvalues --    4.35575   4.36846   4.36890   4.36891   4.37876
 Alpha virt. eigenvalues --    4.37881   4.42074   4.44372   4.45037   4.45040
 Alpha virt. eigenvalues --    4.47418   4.47423   4.50433   4.53823   4.53824
 Alpha virt. eigenvalues --    4.61182   4.61185   4.62544   4.71171   4.73887
 Alpha virt. eigenvalues --    4.73888   4.77396   4.91579   4.92434   4.92435
 Alpha virt. eigenvalues --    4.97869   4.99011   4.99014   5.21194   5.21335
 Alpha virt. eigenvalues --    5.23781   5.23783   5.24207   5.24630   5.24633
 Alpha virt. eigenvalues --    5.36336   5.37058   5.37061   5.50992   5.50998
 Alpha virt. eigenvalues --    5.71077   5.88672   5.88682   5.93195   5.95815
 Alpha virt. eigenvalues --    5.95817   6.03679   6.04166   6.04169   6.21642
 Alpha virt. eigenvalues --    6.76335   6.76340   6.76389   6.76790   6.76794
 Alpha virt. eigenvalues --    6.78230   6.78501   6.79371   6.79381   6.82320
 Alpha virt. eigenvalues --    6.82328   6.90485   6.92900   6.92903   7.08829
 Alpha virt. eigenvalues --    7.27891   7.32142   7.32146   7.55606   7.55609
 Alpha virt. eigenvalues --    7.56973   7.56976   7.65612   7.65779   9.80362
 Alpha virt. eigenvalues --    9.80373   9.86032  12.18081  13.12606  13.12612
 Alpha virt. eigenvalues --   13.12857
          Condensed to atoms (all electrons):
               1          2          3          4          5          6
     1  S   13.503321   0.637668   0.637688   0.637588   0.224403   0.010583
     2  O    0.637668   7.852998  -0.031966  -0.031934  -0.038587  -0.000644
     3  O    0.637688  -0.031966   7.852947  -0.031943  -0.038565  -0.000643
     4  O    0.637588  -0.031934  -0.031943   7.852978  -0.038578   0.000290
     5  C    0.224403  -0.038587  -0.038565  -0.038578   4.747225   0.336853
     6  F    0.010583  -0.000644  -0.000643   0.000290   0.336853   8.826657
     7  F    0.010579  -0.000644   0.000290  -0.000644   0.336966  -0.036603
     8  F    0.010581   0.000290  -0.000644  -0.000643   0.336941  -0.036619
               7          8
     1  S    0.010579   0.010581
     2  O   -0.000644   0.000290
     3  O    0.000290  -0.000644
     4  O   -0.000644  -0.000643
     5  C    0.336966   0.336941
     6  F   -0.036603  -0.036619
     7  F    8.826485  -0.036628
     8  F   -0.036628   8.826521
 Mulliken charges:
               1
     1  S    0.327590
     2  O   -0.387182
     3  O   -0.387164
     4  O   -0.387113
     5  C    0.133342
     6  F   -0.099873
     7  F   -0.099800
     8  F   -0.099800
 Sum of Mulliken charges =  -1.00000
 Mulliken charges with hydrogens summed into heavy atoms:
               1
     1  S    0.327590
     2  O   -0.387182
     3  O   -0.387164
     4  O   -0.387113
     5  C    0.133342
     6  F   -0.099873
     7  F   -0.099800
     8  F   -0.099800
 Electronic spatial extent (au):  <R**2>=            850.3313
 Charge=             -1.0000 electrons
 Dipole moment (field-independent basis, Debye):
    X=              4.0653    Y=              0.0002    Z=              0.0001  Tot=              4.0653
 Quadrupole moment (field-independent basis, Debye-Ang):
   XX=            -58.7578   YY=            -56.9020   ZZ=            -56.9010
   XY=              0.0012   XZ=              0.0001   YZ=              0.0002
 Traceless Quadrupole moment (field-independent basis, Debye-Ang):
   XX=             -1.2375   YY=              0.6182   ZZ=              0.6193
   XY=              0.0012   XZ=              0.0001   YZ=              0.0002
 Octapole moment (field-independent basis, Debye-Ang**2):
  XXX=             22.9624  YYY=              3.4907  ZZZ=              1.7262  XYY=             13.0900
  XXY=             -0.0023  XXZ=             -0.0011  XZZ=             13.0907  YZZ=             -3.4875
  YYZ=             -1.7239  XYZ=              0.0004
 Hexadecapole moment (field-independent basis, Debye-Ang**3):
 XXXX=           -473.1085 YYYY=           -217.9085 ZZZZ=           -217.8843 XXXY=              0.0052
 XXXZ=              0.0029 YYYX=             -6.8123 YYYZ=              0.0006 ZZZX=             -3.3653
 ZZZY=              0.0013 XXYY=           -125.4111 XXZZ=           -125.4069 YYZZ=            -72.6313
 XXYZ=             -0.0012 YYXZ=              3.3639 ZZXY=              6.8127
 N-N= 5.525701597086D+02 E-N=-3.402024917778D+03  KE= 9.572277739647D+02
 1\1\GINC-BLADI16\FOpt\RB3LYP\GTBas3\C1F3O3S1(1-)\SARARIOP\22-Jun-2017\
 0\\# g4 geom=connectivity\\Title Card Required\\-1,1\S,-0.5698722975,0
 .3738258131,-0.0000403428\O,-0.2594727513,-0.9815372325,-0.4372019918\
 O,-0.2590707126,0.6727466071,1.3922808852\O,-0.2594086923,1.4301248859
 ,-0.9552188553\C,-2.4331177776,0.3739087484,0.0000363434\F,-2.93275693
 3,-0.5518467743,0.8377712459\F,-2.9328399529,0.1115324699,-1.220581748
 8\F,-2.9324913228,1.5623186422,0.3830444642\\Version=AM64L-G09RevD.01\
 State=1-A\HF=-961.5715646\RMSD=4.857e-09\RMSF=4.232e-05\Dipole=-1.5994
 032,0.0000671,0.0000746\Quadrupole=-0.9200828,0.4599868,0.4600961,0.00
 06034,-0.0007118,0.000417\PG=C01 [X(C1F3O3S1)]\\@


 It takes a long time to grow an old friend.
                            -- John Leonard
 Job cpu time:       0 days  0 hours 23 minutes  1.2 seconds.
 File lengths (MBytes):  RWF=     34 Int=      0 D2E=      0 Chk=      4 Scr=      1
 Normal termination of Gaussian 09 at Thu Jun 22 18:15:19 2017.
 Link1:  Proceeding to internal job step number  2.
 ----------------------------------------------------------
 #N Geom=AllCheck Guess=TCheck SCRF=Check B3LYP/GTBas3 Freq
 ----------------------------------------------------------
 1/10=4,29=7,30=1,38=1,40=1/1,3;
 2/12=2,40=1/2;
 3/5=35,11=2,14=-4,16=1,25=1,30=1,70=2,71=2,74=-5,116=-2,140=1/1,2,3;
 4/5=101/1;
 5/5=2,98=1/2;
 8/6=4,10=90,11=11/1;
 11/6=1,8=1,9=11,15=111,16=1/1,2,10;
 10/6=1/2;
 6/7=2,8=2,9=2,10=2,18=1,28=1/1;
 7/8=1,10=1,25=1/1,2,3,16;
 1/10=4,30=1/3;
 99//99;
 Structure from the checkpoint file:  "CF3SO3H-Ag4.chk"
 -------------------
 Title Card Required
 -------------------
 Charge = -1 Multiplicity = 1
 Redundant internal coordinates found in file.
 S,0,-0.5698722975,0.3738258131,-0.0000403428
 O,0,-0.2594727513,-0.9815372325,-0.4372019918
 O,0,-0.2590707126,0.6727466071,1.3922808852
 O,0,-0.2594086923,1.4301248859,-0.9552188553
 C,0,-2.4331177776,0.3739087484,0.0000363434
 F,0,-2.932756933,-0.5518467743,0.8377712459
 F,0,-2.9328399529,0.1115324699,-1.2205817488
 F,0,-2.9324913228,1.5623186422,0.3830444642
 Recover connectivity data from disk.

 GradGradGradGradGradGradGradGradGradGradGradGradGradGradGradGradGradGrad
 Berny optimization.
 Initialization pass.
                           ----------------------------
                           !    Initial Parameters    !
                           ! (Angstroms and Degrees)  !
 --------------------------                            --------------------------
 ! Name  Definition              Value          Derivative Info.                !
 --------------------------------------------------------------------------------
 ! R1    R(1,2)                  1.4576         calculate D2E/DX2 analytically  !
 ! R2    R(1,3)                  1.4576         calculate D2E/DX2 analytically  !
 ! R3    R(1,4)                  1.4576         calculate D2E/DX2 analytically  !
 ! R4    R(1,5)                  1.8632         calculate D2E/DX2 analytically  !
[...]
 Alpha virt. eigenvalues --    1.21428   1.22120   1.28272   1.28274   1.36836
 Alpha virt. eigenvalues --    1.36838   1.36972   1.42535   1.44837   1.47882
 Alpha virt. eigenvalues --    1.47885   1.49299   1.49300   1.51131   1.55523
 Alpha virt. eigenvalues --    1.56530   1.56534   1.57361   1.57361   1.61335
 Alpha virt. eigenvalues --    1.61336   1.62643   1.64603   1.65733   1.65735
 Alpha virt. eigenvalues --    1.65816   1.72767   1.74928   1.74930   1.76836
 Alpha virt. eigenvalues --    1.76837   1.78051   1.78556   1.82405   1.82406
 Alpha virt. eigenvalues --    1.86100   1.86103   1.88199   1.88202   1.89334
 Alpha virt. eigenvalues --    1.93371   1.98410   1.98414   2.01161   2.04479
 Alpha virt. eigenvalues --    2.04483   2.06808   2.06810   2.08988   2.11874
 Alpha virt. eigenvalues --    2.11880   2.12709   2.18801   2.20366   2.20369
 Alpha virt. eigenvalues --    2.21389   2.21390   2.21919   2.28939   2.31024
 Alpha virt. eigenvalues --    2.31030   2.34204   2.40688   2.42746   2.42749
 Alpha virt. eigenvalues --    2.45163   2.49848   2.49852   2.52511   2.52769
 Alpha virt. eigenvalues --    2.52772   2.55814   2.58933   2.58936   2.68217
 Alpha virt. eigenvalues --    2.69546   2.69550   2.71565   2.71841   2.71847
 Alpha virt. eigenvalues --    2.72437   2.79775   2.79783   2.81525   2.82731
 Alpha virt. eigenvalues --    2.82735   2.85244   2.85956   2.89795   2.91354
 Alpha virt. eigenvalues --    2.92691   2.92693   3.02881   3.05055   3.05058
 Alpha virt. eigenvalues --    3.07667   3.10290   3.10295   3.13793   3.13795
 Alpha virt. eigenvalues --    3.20625   3.21135   3.21141   3.25605   3.25610
 Alpha virt. eigenvalues --    3.27817   3.27822   3.33582   3.33585   3.40422
 Alpha virt. eigenvalues --    3.40425   3.42879   3.46501   3.46504   3.50327
 Alpha virt. eigenvalues --    3.52933   3.53824   3.53827   3.57328   3.60383
 Alpha virt. eigenvalues --    3.60390   3.61792   3.61802   3.62025   3.62304
 Alpha virt. eigenvalues --    3.69675   3.69677   3.70891   3.72372   3.74247
 Alpha virt. eigenvalues --    3.74249   3.74657   3.77168   3.77169   3.84508
 Alpha virt. eigenvalues --    3.84515   3.86177   3.89650   3.89653   3.92303
 Alpha virt. eigenvalues --    3.92305   3.99445   4.02064   4.05420   4.08144
 Alpha virt. eigenvalues --    4.12057   4.12835   4.12842   4.19449   4.19450
 Alpha virt. eigenvalues --    4.22519   4.26853   4.28004   4.28006   4.28711
 Alpha virt. eigenvalues --    4.28714   4.33319   4.37575   4.37589   4.45354
 Alpha virt. eigenvalues --    4.45357   4.47139   4.48458   4.48461   4.50673
 Alpha virt. eigenvalues --    4.50679   4.52503   4.58747   4.68585   4.68590
 Alpha virt. eigenvalues --    4.72764   4.74389   4.74953   4.74955   4.80133
 Alpha virt. eigenvalues --    4.80135   4.80357   4.82449   4.87465   4.87468
 Alpha virt. eigenvalues --    4.91608   4.96323   4.96325   5.05596   5.05600
 Alpha virt. eigenvalues --    5.07375   5.08777   5.09474   5.17758   5.17762
 Alpha virt. eigenvalues --    5.21090   5.21098   5.27800   5.37389   5.39090
 Alpha virt. eigenvalues --    5.39093   5.44674   5.44677   5.52005   5.55482
 Alpha virt. eigenvalues --    5.55487   5.56207   5.59954   5.59956   5.65913
 Alpha virt. eigenvalues --    5.76740   5.76741   5.80985   5.80990   5.86677
 Alpha virt. eigenvalues --    5.89907   5.89909   5.91878   5.91883   5.95254
 Alpha virt. eigenvalues --    5.96242   5.98843   6.05285   6.05292   6.09860
 Alpha virt. eigenvalues --    6.13376   6.13377   6.14383   6.17330   6.19395
 Alpha virt. eigenvalues --    6.19399   6.24903   6.24906   6.27109   6.28010
 Alpha virt. eigenvalues --    6.28013   6.30175   6.36203   6.39676   6.39681
 Alpha virt. eigenvalues --    6.42086   6.42090   6.42483   6.47564   6.47568
 Alpha virt. eigenvalues --    6.50483   6.50486   6.51453   6.51458   6.56887
 Alpha virt. eigenvalues --    6.66977   6.71075   6.71082   6.71172   6.78907
 Alpha virt. eigenvalues --    6.81742   6.83508   6.83521   6.91490   6.91507
 Alpha virt. eigenvalues --    6.93976   6.98398   6.98403   7.12632   7.29929
 Alpha virt. eigenvalues --    7.29936   7.39712   7.40468   7.45243   7.45253
 Alpha virt. eigenvalues --    7.49117   7.49312   7.49315   7.53267   7.54062
 Alpha virt. eigenvalues --    7.54064   7.55971   7.55981   7.58764   7.65565
 Alpha virt. eigenvalues --    7.65565   7.74533   7.74537   7.75030   7.77764
 Alpha virt. eigenvalues --    7.79494   7.79496   7.80754   7.80757   7.82022
 Alpha virt. eigenvalues --    7.85057   7.89288   7.91060   7.91061   8.00079
 Alpha virt. eigenvalues --    8.00139   8.00147   8.02964   8.04166   8.07882
 Alpha virt. eigenvalues --    8.07889   8.10046   8.10057   8.10854   8.16045
 Alpha virt. eigenvalues --    8.16048   8.16814   8.21693   8.22961   8.22962
 Alpha virt. eigenvalues --    8.26874   8.35963   8.36456   8.36464   8.40138
 Alpha virt. eigenvalues --    8.42107   8.42113   8.47186   8.47192   8.51193
 Alpha virt. eigenvalues --    8.64572   8.64585   8.67191   8.67884   8.67891
 Alpha virt. eigenvalues --    8.79829   8.79836   8.84925   8.85134   8.85144
 Alpha virt. eigenvalues --    8.95527   8.95609   8.98178   8.98184   9.10776
 Alpha virt. eigenvalues --    9.15148   9.15150   9.20768   9.20775   9.33485
 Alpha virt. eigenvalues --    9.51901   9.51907   9.62044   9.62048   9.65209
 Alpha virt. eigenvalues --    9.71506   9.72415   9.72417   9.78907   9.78912
 Alpha virt. eigenvalues --    9.83144   9.83288   9.83302   9.95728   9.95737
 Alpha virt. eigenvalues --   10.00591  10.00593  10.00997  10.11501  10.11505
 Alpha virt. eigenvalues --   10.13642  10.17781  10.25684  10.26163  10.26168
 Alpha virt. eigenvalues --   10.26873  10.32816  10.32823  10.39347  10.39352
 Alpha virt. eigenvalues --   10.43322  10.46970  10.47006  10.47019  10.53071
 Alpha virt. eigenvalues --   10.72126  10.72132  10.72765  10.74449  10.80467
 Alpha virt. eigenvalues --   10.80786  10.80795  10.87715  10.87720  10.97281
 Alpha virt. eigenvalues --   10.97285  10.99105  11.00350  11.03821  11.03825
 Alpha virt. eigenvalues --   11.10563  11.10564  11.12748  11.20169  11.22734
 Alpha virt. eigenvalues --   11.22736  11.23148  11.30123  11.30127  11.37077
 Alpha virt. eigenvalues --   11.37080  11.45027  11.57825  11.57837  11.63144
 Alpha virt. eigenvalues --   11.63147  11.77717  11.91578  11.91585  11.93046
 Alpha virt. eigenvalues --   12.35435  12.47303  12.47306  12.65370  12.65371
 Alpha virt. eigenvalues --   12.72064  13.10571  13.24946  13.24952  13.34070
 Alpha virt. eigenvalues --   13.36133  13.36141  13.49578  13.49587  13.50869
 Alpha virt. eigenvalues --   13.76483  14.45187  14.45331  14.45332  14.47170
 Alpha virt. eigenvalues --   14.47170  14.47292  14.47292  14.47293  14.47300
 Alpha virt. eigenvalues --   14.48632  14.48633  14.49423  14.52050  14.53493
 Alpha virt. eigenvalues --   14.53496  14.54476  14.58895  14.58906  14.62619
 Alpha virt. eigenvalues --   14.62621  14.82373  14.82381  14.82760  14.95458
 Alpha virt. eigenvalues --   15.05247  15.05252  15.07792  15.07799  15.10870
 Alpha virt. eigenvalues --   15.16052  15.23304  15.28202  15.28208  15.33902
 Alpha virt. eigenvalues --   15.33913  15.46620  15.46623  15.48684  16.52080
 Alpha virt. eigenvalues --   16.53523  16.56594  16.56596  16.64599  16.64602
 Alpha virt. eigenvalues --   17.81341  17.81347  18.04061  18.43650  18.44572
 Alpha virt. eigenvalues --   18.44572  18.45537  18.45538  18.46198  18.46494
 Alpha virt. eigenvalues --   18.46814  18.46814  18.46838  18.46892  18.46892
 Alpha virt. eigenvalues --   18.46964  18.54065  18.54065  18.59791  18.59795
 Alpha virt. eigenvalues --   18.60989  18.72846  18.73416  18.73417  18.75008
 Alpha virt. eigenvalues --   18.75454  18.75455  18.76813  18.76817  18.78057
 Alpha virt. eigenvalues --   18.79810  18.88368  18.88372  18.94107  18.94113
 Alpha virt. eigenvalues --   18.98504  18.99369  18.99378  19.01608  19.11549
 Alpha virt. eigenvalues --   19.11554  19.12680  19.17967  19.18415  19.18418
 Alpha virt. eigenvalues --   19.21574  19.23467  19.24503  19.24505  19.27225
 Alpha virt. eigenvalues --   19.30728  19.30731  19.36658  19.36663  19.38612
 Alpha virt. eigenvalues --   19.39114  19.39116  19.39859  19.41743  19.41750
 Alpha virt. eigenvalues --   19.42186  19.52177  19.52181  19.57079  19.57079
 Alpha virt. eigenvalues --   19.58536  19.64277  19.65131  19.65701  19.65702
 Alpha virt. eigenvalues --   19.71850  19.71853  19.81981  19.81986  19.84439
 Alpha virt. eigenvalues --   19.94672  19.94675  19.96742  20.00148  20.00690
 Alpha virt. eigenvalues --   20.06592  20.06596  20.09383  20.09389  20.14367
 Alpha virt. eigenvalues --   20.24200  20.24201  20.42278  20.64015  20.64019
 Alpha virt. eigenvalues --   21.34469  22.18973  22.18988  22.36249  22.36251
 Alpha virt. eigenvalues --   22.40658  22.44515  22.44642  22.44647  23.16727
 Alpha virt. eigenvalues --   23.18385  23.18388  23.26227  23.26229  23.42336
 Alpha virt. eigenvalues --   23.61088  23.72370  23.72374  23.88257  23.88538
 Alpha virt. eigenvalues --   23.88539  23.89631  23.89631  23.91525  23.91535
 Alpha virt. eigenvalues --   24.01242  24.01243  24.10023  24.10027  24.10538
 Alpha virt. eigenvalues --   24.39747  24.50128  24.50135  24.54054  24.62136
 Alpha virt. eigenvalues --   24.62139  24.83138  24.83143  24.88951  24.92171
 Alpha virt. eigenvalues --   24.92287  24.92288  24.98843  24.98845  25.00813
 Alpha virt. eigenvalues --   25.50360  25.52666  25.52668  25.55911  25.56690
 Alpha virt. eigenvalues --   25.56694  25.74999  25.75002  25.88537  25.95323
 Alpha virt. eigenvalues --   25.95326  26.01991  26.23258  26.26632  26.29857
 Alpha virt. eigenvalues --   26.29858  26.34422  26.34432  26.75054  26.75058
 Alpha virt. eigenvalues --   26.82746  27.89807  28.99278  28.99375  28.99380
 Alpha virt. eigenvalues --   29.04878  29.04883  29.08737  29.08987  29.08993
 Alpha virt. eigenvalues --   29.82128  29.82130  29.87260  29.90248  29.90249
 Alpha virt. eigenvalues --   29.93226  29.95443  30.46836  30.46838  40.58344
 Alpha virt. eigenvalues --   62.94721  62.94727  63.01337  74.81252  79.91311
 Alpha virt. eigenvalues --   79.91316  80.70153
          Condensed to atoms (all electrons):
               1          2          3          4          5          6
     1  S   12.990558   0.539097   0.539088   0.539101   0.410588  -0.034692
     2  O    0.539097   8.202024  -0.039702  -0.039673  -0.027080   0.001490
     3  O    0.539088  -0.039702   8.202003  -0.039680  -0.027067   0.001486
     4  O    0.539101  -0.039673  -0.039680   8.201991  -0.027083   0.001717
     5  C    0.410588  -0.027080  -0.027067  -0.027083   4.138795   0.261944
     6  F   -0.034692   0.001490   0.001486   0.001717   0.261944   9.123272
     7  F   -0.034685   0.001484   0.001718   0.001487   0.261944  -0.025332
     8  F   -0.034697   0.001718   0.001490   0.001483   0.261943  -0.025345
               7          8
     1  S   -0.034685  -0.034697
     2  O    0.001484   0.001718
     3  O    0.001718   0.001490
     4  O    0.001487   0.001483
     5  C    0.261944   0.261943
     6  F   -0.025332  -0.025345
     7  F    9.123270  -0.025347
     8  F   -0.025347   9.123294
 Mulliken charges:
               1
     1  S    1.085643
     2  O   -0.639359
     3  O   -0.639336
     4  O   -0.639345
     5  C    0.746015
     6  F   -0.304540
     7  F   -0.304539
     8  F   -0.304540
 Sum of Mulliken charges =  -1.00000
 Mulliken charges with hydrogens summed into heavy atoms:
               1
     1  S    1.085643
     2  O   -0.639359
     3  O   -0.639336
     4  O   -0.639345
     5  C    0.746015
     6  F   -0.304540
     7  F   -0.304539
     8  F   -0.304540
 Electronic spatial extent (au):  <R**2>=            856.7000
 Charge=             -1.0000 electrons
 Dipole moment (field-independent basis, Debye):
    X=              4.1114    Y=              0.0000    Z=              0.0002  Tot=              4.1114
 Quadrupole moment (field-independent basis, Debye-Ang):
   XX=            -61.1731   YY=            -59.9774   ZZ=            -59.9764
   XY=              0.0010   XZ=              0.0002   YZ=              0.0002
 Traceless Quadrupole moment (field-independent basis, Debye-Ang):
   XX=             -0.7975   YY=              0.3982   ZZ=              0.3993
   XY=              0.0010   XZ=              0.0002   YZ=              0.0002
 Octapole moment (field-independent basis, Debye-Ang**2):
  XXX=             23.4649  YYY=              4.2223  ZZZ=              2.0891  XYY=             14.4582
  XXY=             -0.0027  XXZ=             -0.0008  XZZ=             14.4584  YZZ=             -4.2199
  YYZ=             -2.0855  XYZ=              0.0002
 Hexadecapole moment (field-independent basis, Debye-Ang**3):
 XXXX=           -496.8663 YYYY=           -237.1309 ZZZZ=           -237.1059 XXXY=              0.0061
 XXXZ=              0.0047 YYYX=             -8.3134 YYYZ=              0.0009 ZZZX=             -4.1061
 ZZZY=              0.0015 XXYY=           -135.2101 XXZZ=           -135.2065 YYZZ=            -79.0379
 XXYZ=             -0.0020 YYXZ=              4.1045 ZZXY=              8.3127
 N-N= 5.525701597086D+02 E-N=-3.400549190472D+03  KE= 9.578738249699D+02
 1\1\GINC-BLADI16\SP\RHF\GFHFB2\C1F3O3S1(1-)\SARARIOP\23-Jun-2017\0\\#N
  Geom=AllCheck Guess=TCheck SCRF=Check HF/GFHFB2 SCF=Tight\\Title Card
  Required\\-1,1\S,0,-0.5698722975,0.3738258131,-0.0000403428\O,0,-0.25
 94727513,-0.9815372325,-0.4372019918\O,0,-0.2590707126,0.6727466071,1.
 3922808852\O,0,-0.2594086923,1.4301248859,-0.9552188553\C,0,-2.4331177
 776,0.3739087484,0.0000363434\F,0,-2.932756933,-0.5518467743,0.8377712
 459\F,0,-2.9328399529,0.1115324699,-1.2205817488\F,0,-2.9324913228,1.5
 623186422,0.3830444642\\Version=AM64L-G09RevD.01\State=1-A\HF=-958.654
 8502\RMSD=5.239e-09\Dipole=-1.6175575,0.0001699,0.0000403\Quadrupole=-
 0.5929079,0.2963711,0.2965368,0.0004247,-0.0007105,0.0004117\PG=C01 [X
 (C1F3O3S1)]\\@


 MOM AND DAD WENT TO ALPHA CENTAURI AND ALL
 I GOT WAS THIS DUMB T-SHIRT.
 Diagonal vibrational polarizability:
        0.0000000       0.0000000       0.0000000

 Temperature=              298.150000 Pressure=                      1.000000
 E(ZPE)=                     0.027156 E(Thermal)=                    0.034356
 E(CCSD(T))=              -959.634907 E(Empiric)=                   -0.173675
 DE(Plus)=                  -0.068440 DE(2DF)=                      -0.454526
 E(Delta-G3XP)=             -0.963839 DE(HF)=                       -0.076982
 G4(0 K)=                 -961.345214 G4 Energy=                  -961.338013
 G4 Enthalpy=             -961.337069 G4 Free Energy=             -961.377767
 1\1\GINC-BLADI16\Mixed\G4\G4\C1F3O3S1(1-)\SARARIOP\23-Jun-2017\0\\# g4
  geom=connectivity\\Title Card Required\\-1,1\S,0,-0.5698722975,0.3738
 258131,-0.0000403428\O,0,-0.2594727513,-0.9815372325,-0.4372019918\O,0
 ,-0.2590707126,0.6727466071,1.3922808852\O,0,-0.2594086923,1.430124885
 9,-0.9552188553\C,0,-2.4331177776,0.3739087484,0.0000363434\F,0,-2.932
 756933,-0.5518467743,0.8377712459\F,0,-2.9328399529,0.1115324699,-1.22
 05817488\F,0,-2.9324913228,1.5623186422,0.3830444642\\Version=AM64L-G0
 9RevD.01\State=1-A\MP2/GTBas1=-959.5940915\MP4/GTBas1=-959.6485109\CCS
 D(T)/G3Bas1=-959.6349069\MP2/GTBas2=-959.6570094\MP4/GTBas2=-959.71695
 13\MP2/GTBas3=-960.018971\MP4/GTBas3=-960.1030367\HF/GTLargeXP=-958.58
 3521\MP2/GTLargeXP=-961.0457281\HF/GFHFB1=-958.6316513\HF/GFHFB2=-958.
 6548502\G4=-961.3452139\FreqCoord=-1.076902573,0.7064284082,-0.0000762
 369,-0.4903324389,-1.8548365586,-0.8261920293,-0.4895726959,1.27130684
 42,2.6310295731,-0.4902113849,2.7025443702,-1.8051020334,-4.5979262488
 ,0.7065851332,0.000068679,-5.5421074177,-1.0428392707,1.5831582168,-5.
 5422643025,0.2107658231,-2.306565228,-5.5416054871,2.9523543662,0.7238
 49134\PG=C01 [X(C1F3O3S1)]\NImag=0\\0.49793303,0.00026441,0.98958127,0
 .00018917,0.00001361,0.98920470,-0.11902004,0.09931936,0.03209767,0.08
 160493,0.09509173,-0.48577494,-0.12659922,-0.11097193,0.52463518,0.030
 68380,-0.12666276,-0.13363893,-0.03584973,0.14519636,0.12059591,-0.118
 96134,-0.02209191,-0.10227402,0.02208319,0.00501676,0.00725389,0.08149
 036,-0.02114523,-0.11186719,-0.08900728,-0.00670581,-0.00404365,-0.041
 91855,0.02460730,0.09569203,-0.09784833,-0.08895494,-0.50725583,-0.005
 74169,-0.00454550,-0.00873513,0.11417958,0.10205680,0.54930095,-0.1189
 8419,-0.07751463,0.07001024,0.02200098,0.00831802,-0.00294657,0.022040
 98,0.00379569,-0.00801644,0.08155480,-0.07423164,-0.33148870,0.2155987
 0,-0.00883055,-0.02760199,0.02830579,-0.00157194,0.01277428,-0.0050572
 2,0.08655609,0.34754050,0.06705062,0.21562252,-0.28781130,0.00072089,-
 0.00910346,0.01512829,0.00868817,0.03235824,-0.02526190,-0.07822693,-0
 .24733428,0.29738481,-0.16820853,0.00001414,-0.00004905,0.01013183,-0.
 01435201,-0.00461900,0.01013154,0.00315852,0.01472164,0.01015318,0.011
 16831,-0.01011679,0.52519802,-0.00000550,-0.02225427,-0.00000368,0.021
 63826,-0.01878099,-0.00617294,-0.00478967,-0.00058985,-0.00433017,-0.0
 1689573,-0.01129464,0.01050313,-0.00005456,0.48592436,0.00003208,0.000
 00254,-0.02226592,0.00695997,-0.00614960,-0.00164011,-0.02223886,-0.00
 432774,-0.01984047,0.01526366,0.01049000,-0.00914665,-0.00002608,0.000
 07305,0.48543814,0.00910097,-0.02629974,0.02380618,-0.00226431,0.00640
 096,-0.00091334,-0.00222088,0.00156847,-0.00627377,-0.01231153,-0.0045
 4406,0.00411060,-0.12909708,-0.06204678,0.05618327,0.09827369,0.006358
 25,-0.01406753,0.01366339,-0.00147166,0.00765230,-0.00075944,-0.000935
 57,0.00218701,-0.00408673,-0.00596772,0.00057336,0.00026031,-0.0656850
 5,-0.15165375,0.07303444,0.07135130,0.22395581,-0.00576930,0.01365032,
 -0.01134526,0.00081849,-0.00353384,0.00169057,0.00138883,-0.00130933,0
 .00714798,0.00540384,0.00026214,0.00062536,0.05944927,0.07300928,-0.13
 687433,-0.06460672,-0.13173935,0.19746115,0.00908610,-0.00745654,-0.03
 466268,-0.00222974,0.00465940,0.00450610,-0.01230831,-0.00128480,-0.00
 598763,-0.00221560,-0.00235333,0.00603276,-0.12925694,-0.01760366,-0.0
 8188888,0.01937555,0.00435004,0.00838300,0.09818056,0.00177889,-0.0002
 2695,-0.00563972,-0.00064084,0.00353615,0.00216729,-0.00168812,0.00084
 161,-0.00010825,0.00001737,0.00127447,-0.00010574,-0.01862252,-0.07743
 504,-0.03026503,0.00847322,0.00899121,0.03421884,0.02015873,0.09006483
 ,0.00827708,-0.00565122,-0.02532972,-0.00147390,0.00489176,0.00578415,
 -0.00786406,-0.00010804,0.00035556,-0.00161934,-0.00283236,0.00801046,
 -0.08655294,-0.03013617,-0.21121062,-0.00441325,0.02401638,-0.07263711
 ,0.09418331,0.05454239,0.33207704,0.00905400,0.03376492,0.01088249,-0.
 01230684,0.00583707,0.00188487,-0.00225555,-0.00399415,-0.00503336,-0.
 00223862,-0.00619288,0.00174068,-0.12905203,0.07975764,0.02571484,0.01
 914359,-0.00799960,-0.00506741,0.01936838,-0.00947673,-0.00053688,0.09
 828707,-0.00811091,-0.02390169,-0.00802580,0.00766316,0.00037794,-0.00
 015574,0.00145316,0.00500575,0.00502601,0.00169093,0.00822272,-0.00220
 072,0.08437316,-0.20391582,-0.04285766,0.00509663,-0.07763841,0.015441
 94,-0.00046985,-0.02704628,-0.04472274,-0.09169628,0.31889579,-0.00261
 511,-0.00802007,-0.00155773,0.00246830,-0.00015650,0.00081525,0.000866
 47,0.00225590,0.00428884,0.00013155,0.00056722,0.00107094,0.02719296,-
 0.04294251,-0.08446004,-0.00789297,0.02561101,0.01393164,0.00943403,-0
 .05480978,-0.03704976,-0.02958523,0.07749473,0.10296086\\-0.00001456,-
 0.00001492,0.00000097,-0.00003023,-0.00001082,0.00004195,0.00001757,-0
 .00001629,0.00001967,0.00000449,0.00007255,-0.00003972,-0.00010169,-0.
 00001497,-0.00000994,0.00002022,0.00002166,0.00000244,0.00003870,0.000
 05225,0.00003560,0.00006550,-0.00008947,-0.00005097\\\@
 Job cpu time:       0 days  8 hours 33 minutes 39.6 seconds.
 File lengths (MBytes):  RWF=  24916 Int=      0 D2E=      0 Chk=     31 Scr=      1
 Normal termination of Gaussian 09 at Fri Jun 23 15:18:38 2017.
