 Entering Gaussian System, Link 0=g09
 Initial command:
 /usr/local/gaussian/gaussian09.d1/g09/l1.exe "/scratch/sarariop/CF3SO3Hg4.com/Gau-10753.inp" -scrdir="/scratch/sarariop/CF3SO3Hg4.com/"
 Entering Link 1 = /usr/local/gaussian/gaussian09.d1/g09/l1.exe PID=     10754.
  
 Copyright (c) 1988,1990,1992,1993,1995,1998,2003,2009,2013,
            Gaussian, Inc.  All Rights Reserved.
  
 This is part of the Gaussian(R) 09 program.  It is based on
 the Gaussian(R) 03 system (copyright 2003, Gaussian, Inc.),
 the Gaussian(R) 98 system (copyright 1998, Gaussian, Inc.),
 the Gaussian(R) 94 system (copyright 1995, Gaussian, Inc.),
 the Gaussian 92(TM) system (copyright 1992, Gaussian, Inc.),
 the Gaussian 90(TM) system (copyright 1990, Gaussian, Inc.),
 the Gaussian 88(TM) system (copyright 1988, Gaussian, Inc.),
 the Gaussian 86(TM) system (copyright 1986, Carnegie Mellon
 University), and the Gaussian 82(TM) system (copyright 1983,
 Carnegie Mellon University). Gaussian is a federally registered
 trademark of Gaussian, Inc.
  
 This software contains proprietary and confidential information,
 including trade secrets, belonging to Gaussian, Inc.
  
 This software is provided under written license and may be
 used, copied, transmitted, or stored only in accord with that
 written license.
  
 The following legend is applicable only to US Government
 contracts under FAR:
  
                    RESTRICTED RIGHTS LEGEND
  
 Use, reproduction and disclosure by the US Government is
 subject to restrictions as set forth in subparagraphs (a)
 and (c) of the Commercial Computer Software - Restricted
 Rights clause in FAR 52.227-19.
  
 Gaussian, Inc.
 340 Quinnipiac St., Bldg. 40, Wallingford CT 06492
  
  
 ---------------------------------------------------------------
 Warning -- This program may not be used in any manner that
 competes with the business of Gaussian, Inc. or will provide
 assistance to any competitor of Gaussian, Inc.  The licensee
 of this program is prohibited from giving any competitor of
 Gaussian, Inc. access to this program.  By using this program,
 the user acknowledges that Gaussian, Inc. is engaged in the
 business of creating and licensing software in the field of
 computational chemistry and represents and warrants to the
 licensee that it is not a competitor of Gaussian, Inc. and that
 it will not use this program in any manner prohibited above.
 ---------------------------------------------------------------
  

 Cite this work as:
 Gaussian 09, Revision D.01,
 M. J. Frisch, G. W. Trucks, H. B. Schlegel, G. E. Scuseria, 
 M. A. Robb, J. R. Cheeseman, G. Scalmani, V. Barone, B. Mennucci, 
 G. A. Petersson, H. Nakatsuji, M. Caricato, X. Li, H. P. Hratchian, 
 A. F. Izmaylov, J. Bloino, G. Zheng, J. L. Sonnenberg, M. Hada, 
 M. Ehara, K. Toyota, R. Fukuda, J. Hasegawa, M. Ishida, T. Nakajima, 
 Y. Honda, O. Kitao, H. Nakai, T. Vreven, J. A. Montgomery, Jr., 
 J. E. Peralta, F. Ogliaro, M. Bearpark, J. J. Heyd, E. Brothers, 
 K. N. Kudin, V. N. Staroverov, T. Keith, R. Kobayashi, J. Normand, 
 K. Raghavachari, A. Rendell, J. C. Burant, S. S. Iyengar, J. Tomasi, 
 M. Cossi, N. Rega, J. M. Millam, M. Klene, J. E. Knox, J. B. Cross, 
 V. Bakken, C. Adamo, J. Jaramillo, R. Gomperts, R. E. Stratmann, 
 O. Yazyev, A. J. Austin, R. Cammi, C. Pomelli, J. W. Ochterski, 
 R. L. Martin, K. Morokuma, V. G. Zakrzewski, G. A. Voth, 
 P. Salvador, J. J. Dannenberg, S. Dapprich, A. D. Daniels, 
 O. Farkas, J. B. Foresman, J. V. Ortiz, J. Cioslowski, 
 and D. J. Fox, Gaussian, Inc., Wallingford CT, 2013.
 
 ******************************************
 Gaussian 09:  AM64L-G09RevD.01 24-Apr-2013
                22-Jun-2017 
 ******************************************
 %chk=CF3SO3Hg4.chk
 ----------------------
 # g4 geom=connectivity
 ----------------------
 1/14=-1,18=20,19=15,26=3,38=1,57=2/1,3;
 2/9=110,12=2,17=6,18=5,40=1/2;
 3/5=35,7=104,11=2,16=1,25=1,30=1,71=1,74=-5/1,2,3;
 4//1;
 5/5=2,38=5/2;
 6/7=2,8=2,9=2,10=2,28=1/1;
 7//1,2,3,16;
 1/14=-1,18=20,19=15,26=3/3(2);
 2/9=110/2;
 99//99;
 2/9=110/2;
 3/5=35,7=104,11=2,16=1,25=1,30=1,71=1,74=-5/1,2,3;
 4/5=5,16=3,69=1/1;
 5/5=2,38=5/2;
 7//1,2,3,16;
 1/14=-1,18=20,19=15,26=3/3(-5);
 2/9=110/2;
 6/7=2,8=2,9=2,10=2,19=2,28=1/1;
 99/9=1/99;
 -------------------
 Title Card Required
 -------------------
 Symbolic Z-matrix:
 Charge =  0 Multiplicity = 1
 S                    -0.79439   0.56075   0. 
 O                    -1.16164  -0.64039  -0.70083 
 O                    -1.18831   1.81513  -0.95663 
 H                    -1.35733   2.59152  -0.40061 
 O                    -1.19006   0.86523   1.3583 
 C                     1.07938   0.71439  -0.07994 
 F                     1.49814   0.53338  -1.32422 
 F                     1.61396  -0.20485   0.71444 
 F                     1.4331    1.92955   0.34045 
 

 GradGradGradGradGradGradGradGradGradGradGradGradGradGradGradGradGradGrad
 Berny optimization.
 Initialization pass.
                           ----------------------------
                           !    Initial Parameters    !
                           ! (Angstroms and Degrees)  !
 --------------------------                            --------------------------
 ! Name  Definition              Value          Derivative Info.                !
 --------------------------------------------------------------------------------
 ! R1    R(1,2)                  1.4383         estimate D2E/DX2                !
 ! R2    R(1,3)                  1.626          estimate D2E/DX2                !
 ! R3    R(1,5)                  1.4471         estimate D2E/DX2                !
 ! R4    R(1,6)                  1.8818         estimate D2E/DX2                !
 ! R5    R(3,4)                  0.9698         estimate D2E/DX2                !
 ! R6    R(6,7)                  1.3253         estimate D2E/DX2                !
 ! R7    R(6,8)                  1.3273         estimate D2E/DX2                !
 ! R8    R(6,9)                  1.3336         estimate D2E/DX2                !
 ! A1    A(2,1,3)              107.2009         estimate D2E/DX2                !
 ! A2    A(2,1,5)              124.2795         estimate D2E/DX2                !
 ! A3    A(2,1,6)              107.5618         estimate D2E/DX2                !
 ! A4    A(3,1,5)              108.8848         estimate D2E/DX2                !
 ! A5    A(3,1,6)               98.8155         estimate D2E/DX2                !
 ! A6    A(5,1,6)              107.1541         estimate D2E/DX2                !
 ! A7    A(1,3,4)              108.8151         estimate D2E/DX2                !
 ! A8    A(1,6,7)              110.082          estimate D2E/DX2                !
 ! A9    A(1,6,8)              108.6065         estimate D2E/DX2                !
 ! A10   A(1,6,9)              108.9728         estimate D2E/DX2                !
 ! A11   A(7,6,8)              109.8799         estimate D2E/DX2                !
 ! A12   A(7,6,9)              109.6705         estimate D2E/DX2                !
 ! A13   A(8,6,9)              109.6072         estimate D2E/DX2                !
 ! D1    D(2,1,3,4)            153.3321         estimate D2E/DX2                !
 ! D2    D(5,1,3,4)             16.5259         estimate D2E/DX2                !
 ! D3    D(6,1,3,4)            -95.0973         estimate D2E/DX2                !
 ! D4    D(2,1,6,7)             48.4031         estimate D2E/DX2                !
 ! D5    D(2,1,6,8)            -71.9357         estimate D2E/DX2                !
 ! D6    D(2,1,6,9)            168.7131         estimate D2E/DX2                !
 ! D7    D(3,1,6,7)            -62.8797         estimate D2E/DX2                !
 ! D8    D(3,1,6,8)            176.7816         estimate D2E/DX2                !
 ! D9    D(3,1,6,9)             57.4304         estimate D2E/DX2                !
 ! D10   D(5,1,6,7)           -175.875          estimate D2E/DX2                !
 ! D11   D(5,1,6,8)             63.7863         estimate D2E/DX2                !
 ! D12   D(5,1,6,9)            -55.5649         estimate D2E/DX2                !
 --------------------------------------------------------------------------------
 Trust Radius=3.00D-01 FncErr=1.00D-07 GrdErr=1.00D-06
 Number of steps in this run=     43 maximum allowed number of steps=    100.
 GradGradGradGradGradGradGradGradGradGradGradGradGradGradGradGradGradGrad

                          Input orientation:                          
 ---------------------------------------------------------------------
 Center     Atomic      Atomic             Coordinates (Angstroms)
 Number     Number       Type             X           Y           Z
 ---------------------------------------------------------------------
      1         16           0       -0.794393    0.560748    0.000000
      2          8           0       -1.161641   -0.640391   -0.700825
      3          8           0       -1.188308    1.815133   -0.956627
      4          1           0       -1.357327    2.591518   -0.400606
      5          8           0       -1.190059    0.865226    1.358302
      6          6           0        1.079381    0.714393   -0.079936
      7          9           0        1.498135    0.533382   -1.324217
      8          9           0        1.613957   -0.204850    0.714436
      9          9           0        1.433097    1.929553    0.340450
 ---------------------------------------------------------------------
                    Distance matrix (angstroms):
                    1          2          3          4          5
     1  S    0.000000
     2  O    1.438319   0.000000
     3  O    1.625972   2.468956   0.000000
     4  H    2.145089   3.251717   0.969794   0.000000
     5  O    1.447150   2.551018   2.502244   2.470186   0.000000
     6  C    1.881761   2.691305   2.668825   3.092567   2.691029
     7  F    2.647637   2.973343   2.999164   3.639044   3.812141
     8  F    2.626159   3.145887   3.837378   4.229837   3.069549
     9  F    2.636521   3.797569   2.926989   2.962065   3.008282
                    6          7          8          9
     6  C    0.000000
     7  F    1.325275   0.000000
     8  F    1.327330   2.171292   0.000000
     9  F    1.333587   2.173624   2.174454   0.000000
 Stoichiometry    CHF3O3S
 Framework group  C1[X(CHF3O3S)]
 Deg. of freedom    21
 Full point group                 C1      NOp   1
 Largest Abelian subgroup         C1      NOp   1
 Largest concise Abelian subgroup C1      NOp   1
                         Standard orientation:                         
 ---------------------------------------------------------------------
 Center     Atomic      Atomic             Coordinates (Angstroms)
 Number     Number       Type             X           Y           Z
 ---------------------------------------------------------------------
      1         16           0       -0.861897   -0.148608    0.076992
      2          8           0       -1.229145   -1.349747   -0.623833
      3          8           0       -1.255812    1.105777   -0.879635
      4          1           0       -1.424831    1.882162   -0.323614
      5          8           0       -1.257563    0.155870    1.435294
      6          6           0        1.011877    0.005037   -0.002944
      7          9           0        1.430631   -0.175974   -1.247225
      8          9           0        1.546453   -0.914206    0.791428
      9          9           0        1.365593    1.220197    0.417442
 ---------------------------------------------------------------------
 Rotational constants (GHZ):      2.5963619      1.5373844      1.5285648
 Standard basis: GTBas3 (6D, 7F)
 There are   257 symmetry adapted cartesian basis functions of A   symmetry.
 There are   233 symmetry adapted basis functions of A   symmetry.
   233 basis functions,   383 primitive gaussians,   257 cartesian basis functions
    37 alpha electrons       37 beta electrons
       nuclear repulsion energy       563.9439347991 Hartrees.
 NAtoms=    9 NActive=    9 NUniq=    9 SFac= 1.00D+00 NAtFMM=   60 NAOKFM=F Big=F
 Integral buffers will be    131072 words long.
 Raffenetti 2 integral format.
 Two-electron integral symmetry is turned on.
 One-electron integrals computed using PRISM.
 NBasis=   233 RedAO= T EigKep=  1.51D-03  NBF=   233
 NBsUse=   233 1.00D-06 EigRej= -1.00D+00 NBFU=   233
 ExpMin= 1.17D-01 ExpMax= 2.19D+04 ExpMxC= 3.30D+03 IAcc=1 IRadAn=         1 AccDes= 0.00D+00
 Harris functional with IExCor=  402 and IRadAn=       1 diagonalized for initial guess.
 HarFok:  IExCor=  402 AccDes= 0.00D+00 IRadAn=         1 IDoV= 1 UseB2=F ITyADJ=14
 ICtDFT=  3500011 ScaDFX=  1.000000  1.000000  1.000000  1.000000
 FoFCou: FMM=F IPFlag=           0 FMFlag=      100000 FMFlg1=           0
         NFxFlg=           0 DoJE=T BraDBF=F KetDBF=T FulRan=T
         wScrn=  0.000000 ICntrl=     500 IOpCl=  0 I1Cent=   200000004 NGrid=           0
         NMat0=    1 NMatS0=      1 NMatT0=    0 NMatD0=    1 NMtDS0=    0 NMtDT0=    0
 Petite list used in FoFCou.
 Requested convergence on RMS density matrix=1.00D-08 within 128 cycles.
 Requested convergence on MAX density matrix=1.00D-06.
 Requested convergence on             energy=1.00D-06.
 No special actions if energy rises.
 Integral accuracy reduced to 1.0D-05 until final iterations.
 Initial convergence to 1.0D-05 achieved.  Increase integral accuracy.
 SCF Done:  E(RB3LYP) =  -962.080901329     A.U. after   14 cycles
            NFock= 14  Conv=0.72D-08     -V/T= 2.0048

 **********************************************************************

            Population analysis using the SCF density.

 **********************************************************************

 Orbital symmetries:
       Occupied  (A) (A) (A) (A) (A) (A) (A) (A) (A) (A) (A) (A)
                 (A) (A) (A) (A) (A) (A) (A) (A) (A) (A) (A) (A)
                 (A) (A) (A) (A) (A) (A) (A) (A) (A) (A) (A) (A)
                 (A)
       Virtual   (A) (A) (A) (A) (A) (A) (A) (A) (A) (A) (A) (A)
                 (A) (A) (A) (A) (A) (A) (A) (A) (A) (A) (A) (A)
                 (A) (A) (A) (A) (A) (A) (A) (A) (A) (A) (A) (A)
                 (A) (A) (A) (A) (A) (A) (A) (A) (A) (A) (A) (A)
                 (A) (A) (A) (A) (A) (A) (A) (A) (A) (A) (A) (A)
                 (A) (A) (A) (A) (A) (A) (A) (A) (A) (A) (A) (A)
                 (A) (A) (A) (A) (A) (A) (A) (A) (A) (A) (A) (A)
                 (A) (A) (A) (A) (A) (A) (A) (A) (A) (A) (A) (A)
                 (A) (A) (A) (A) (A) (A) (A) (A) (A) (A) (A) (A)
                 (A) (A) (A) (A) (A) (A) (A) (A) (A) (A) (A) (A)
                 (A) (A) (A) (A) (A) (A) (A) (A) (A) (A) (A) (A)
                 (A) (A) (A) (A) (A) (A) (A) (A) (A) (A) (A) (A)
                 (A) (A) (A) (A) (A) (A) (A) (A) (A) (A) (A) (A)
                 (A) (A) (A) (A) (A) (A) (A) (A) (A) (A) (A) (A)
                 (A) (A) (A) (A) (A) (A) (A) (A) (A) (A) (A) (A)
                 (A) (A) (A) (A) (A) (A) (A) (A) (A) (A) (A) (A)
                 (A) (A) (A) (A)
 The electronic state is 1-A.
 Alpha  occ. eigenvalues --  -89.13988 -24.76633 -24.76524 -24.76515 -19.23167
 Alpha  occ. eigenvalues --  -19.17940 -19.17831 -10.47300  -8.16312  -6.12965
 Alpha  occ. eigenvalues --   -6.12689  -6.12618  -1.35346  -1.26540  -1.26506
 Alpha  occ. eigenvalues --   -1.17416  -1.07222  -1.04783  -0.77076  -0.69355
 Alpha  occ. eigenvalues --   -0.63545  -0.62816  -0.62378  -0.55131  -0.51182
 Alpha  occ. eigenvalues --   -0.49964  -0.49482  -0.48564  -0.46846  -0.46609
 Alpha  occ. eigenvalues --   -0.46037  -0.44222  -0.39913  -0.37777  -0.36148
 Alpha  occ. eigenvalues --   -0.34559  -0.34098
 Alpha virt. eigenvalues --    0.01068   0.02565   0.05710   0.06182   0.07771
 Alpha virt. eigenvalues --    0.16748   0.17804   0.20568   0.24769   0.27519
 Alpha virt. eigenvalues --    0.29977   0.33056   0.37907   0.40593   0.41256
 Alpha virt. eigenvalues --    0.46039   0.48466   0.56339   0.56778   0.61421
 Alpha virt. eigenvalues --    0.62529   0.65347   0.67761   0.69022   0.77329
 Alpha virt. eigenvalues --    0.78799   0.81231   0.81901   0.82554   0.84319
 Alpha virt. eigenvalues --    0.86256   0.86946   0.88562   0.89636   0.91753
 Alpha virt. eigenvalues --    0.91941   0.94619   0.94983   0.95376   0.96040
 Alpha virt. eigenvalues --    0.97426   0.98392   0.98930   1.02484   1.03325
 Alpha virt. eigenvalues --    1.04644   1.07666   1.10181   1.10822   1.11989
 Alpha virt. eigenvalues --    1.14245   1.15063   1.16895   1.17986   1.21246
 Alpha virt. eigenvalues --    1.26792   1.30812   1.31359   1.33355   1.33606
 Alpha virt. eigenvalues --    1.36347   1.36693   1.40766   1.42843   1.45668
 Alpha virt. eigenvalues --    1.47697   1.58339   1.59588   1.65157   1.67238
 Alpha virt. eigenvalues --    1.71180   1.73026   1.77174   1.81393   1.83586
 Alpha virt. eigenvalues --    1.90126   1.96418   1.98176   1.98810   2.02976
 Alpha virt. eigenvalues --    2.04462   2.05956   2.07424   2.16738   2.19054
 Alpha virt. eigenvalues --    2.24296   2.26399   2.31134   2.45446   2.52697
 Alpha virt. eigenvalues --    2.56279   2.58907   2.62162   2.65729   2.79908
 Alpha virt. eigenvalues --    2.90784   2.94528   3.10142   3.17218   3.19102
 Alpha virt. eigenvalues --    3.19940   3.24606   3.28345   3.48406   3.77377
 Alpha virt. eigenvalues --    3.79875   3.80870   3.96065   4.04575   4.06317
 Alpha virt. eigenvalues --    4.08222   4.08559   4.09207   4.11241   4.13024
 Alpha virt. eigenvalues --    4.13854   4.14387   4.15642   4.16467   4.17849
 Alpha virt. eigenvalues --    4.18741   4.19425   4.20649   4.21300   4.22475
 Alpha virt. eigenvalues --    4.26081   4.30224   4.30740   4.31121   4.33059
 Alpha virt. eigenvalues --    4.35181   4.36242   4.52685   4.54983   4.55397
 Alpha virt. eigenvalues --    4.58633   4.62285   4.70756   4.71423   4.76397
 Alpha virt. eigenvalues --    4.76973   4.80949   4.82609   4.95274   4.99740
 Alpha virt. eigenvalues --    5.00076   5.00480   5.01838   5.06918   5.17144
 Alpha virt. eigenvalues --    5.17908   5.19485   5.26844   5.34906   5.35657
 Alpha virt. eigenvalues --    5.41351   5.50707   5.53913   5.66803   5.68515
 Alpha virt. eigenvalues --    5.74585   5.79880   5.84516   5.87069   5.91039
 Alpha virt. eigenvalues --    6.55075   6.56775   6.57054   6.57213   6.57495
 Alpha virt. eigenvalues --    6.57979   6.58344   6.59443   6.61884   6.62265
 Alpha virt. eigenvalues --    6.66758   6.74786   6.75920   6.84436   6.89313
 Alpha virt. eigenvalues --    7.10047   7.14451   7.15738   7.35144   7.35509
 Alpha virt. eigenvalues --    7.41284   7.42234   7.51427   7.57164   9.59792
 Alpha virt. eigenvalues --    9.61869   9.73155  12.07405  12.87267  12.92336
 Alpha virt. eigenvalues --   13.07861
          Condensed to atoms (all electrons):
               1          2          3          4          5          6
     1  S   13.613672   0.665018   0.316534  -0.021739   0.656458   0.242585
     2  O    0.665018   7.658497  -0.029437   0.001575  -0.017368  -0.028997
     3  O    0.316534  -0.029437   7.813032   0.297777  -0.031305  -0.021248
     4  H   -0.021739   0.001575   0.297777   0.377951   0.002571   0.001286
     5  O    0.656458  -0.017368  -0.031305   0.002571   7.701603  -0.028718
     6  C    0.242585  -0.028997  -0.021248   0.001286  -0.028718   4.517535
     7  F    0.010619   0.000082  -0.000449  -0.000025   0.000189   0.376550
     8  F    0.008745  -0.000231   0.000169   0.000001   0.000021   0.382821
     9  F    0.013235   0.000192   0.000273   0.000029  -0.000430   0.361080
               7          8          9
     1  S    0.010619   0.008745   0.013235
     2  O    0.000082  -0.000231   0.000192
     3  O   -0.000449   0.000169   0.000273
     4  H   -0.000025   0.000001   0.000029
     5  O    0.000189   0.000021  -0.000430
     6  C    0.376550   0.382821   0.361080
     7  F    8.723708  -0.034083  -0.033295
     8  F   -0.034083   8.725390  -0.034055
     9  F   -0.033295  -0.034055   8.755749
 Mulliken charges:
               1
     1  S    0.494873
     2  O   -0.249332
     3  O   -0.345347
     4  H    0.340573
     5  O   -0.283021
     6  C    0.197106
     7  F   -0.043295
     8  F   -0.048779
     9  F   -0.062778
 Sum of Mulliken charges =   0.00000
 Mulliken charges with hydrogens summed into heavy atoms:
               1
     1  S    0.494873
     2  O   -0.249332
     3  O   -0.004774
     5  O   -0.283021
     6  C    0.197106
     7  F   -0.043295
     8  F   -0.048779
     9  F   -0.062778
 Electronic spatial extent (au):  <R**2>=            862.6627
 Charge=              0.0000 electrons
 Dipole moment (field-independent basis, Debye):
    X=              0.7042    Y=              2.5606    Z=             -0.2175  Tot=              2.6646
 Quadrupole moment (field-independent basis, Debye-Ang):
   XX=            -48.5536   YY=            -45.6988   ZZ=            -52.6867
   XY=             -4.4349   XZ=              0.4443   YZ=             -1.0382
 Traceless Quadrupole moment (field-independent basis, Debye-Ang):
   XX=              0.4261   YY=              3.2809   ZZ=             -3.7070
   XY=             -4.4349   XZ=              0.4443   YZ=             -1.0382
 Octapole moment (field-independent basis, Debye-Ang**2):
  XXX=             15.8522  YYY=             15.7732  ZZZ=             -3.1993  XYY=             -0.2253
  XXY=              6.9613  XXZ=             -0.9822  XZZ=             10.3147  YZZ=             -0.6021
  YYZ=              1.0683  XYZ=              1.3561
 Hexadecapole moment (field-independent basis, Debye-Ang**3):
 XXXX=           -445.9563 YYYY=           -188.0601 ZZZZ=           -210.3537 XXXY=            -10.6940
 XXXZ=              1.2279 YYYX=            -23.8707 YYYZ=             -4.2761 ZZZX=              4.6982
 ZZZY=              0.1605 XXYY=           -103.6148 XXZZ=           -117.8457 YYZZ=            -70.8293
 XXYZ=             -1.7387 YYXZ=             -1.6397 ZZXY=              1.0475
 N-N= 5.639439347991D+02 E-N=-3.408666967918D+03  KE= 9.574702843344D+02
 Calling FoFJK, ICntrl=      2127 FMM=F ISym2X=0 I1Cent= 0 IOpClX= 0 NMat=1 NMatS=1 NMatT=0.
 ***** Axes restored to original set *****
 -------------------------------------------------------------------
 Center     Atomic                   Forces (Hartrees/Bohr)
 Number     Number              X              Y              Z
 -------------------------------------------------------------------
      1       16          -0.006075410    0.002221584    0.001211495
      2        8           0.003985606    0.013874840    0.007949518
      3        8           0.002955970   -0.010273229    0.005580232
      4        1           0.000321122   -0.001233504    0.001162386
      5        8           0.004496697   -0.004029416   -0.016057757
      6        6           0.002038849    0.000560120    0.000425595
      7        9          -0.002463117    0.000708007    0.004446901
      8        9          -0.002900366    0.003337434   -0.002952783
      9        9          -0.002359352   -0.005165836   -0.001765588
 -------------------------------------------------------------------
 Cartesian Forces:  Max     0.016057757 RMS     0.005618220

 GradGradGradGradGradGradGradGradGradGradGradGradGradGradGradGradGradGrad
 Berny optimization.
 FormGI is forming the generalized inverse of G from B-inverse, IUseBI=4.
 Internal  Forces:  Max     0.017151305 RMS     0.005193028
 Search for a local minimum.
 Step number   1 out of a maximum of   43
 All quantities printed in internal units (Hartrees-Bohrs-Radians)
 Mixed Optimization -- RFO/linear search
 Second derivative matrix not updated -- first step.
 ITU=  0
     Eigenvalues ---    0.00230   0.02275   0.08695   0.08796   0.09037
     Eigenvalues ---    0.10643   0.15851   0.16000   0.19885   0.20606
     Eigenvalues ---    0.25000   0.25000   0.25000   0.25000   0.46507
     Eigenvalues ---    0.53419   0.58667   0.60141   0.60636   0.97223
     Eigenvalues ---    1.01350
 RFO step:  Lambda=-1.37411652D-03 EMin= 2.30000000D-03
 Linear search not attempted -- first point.
 Iteration  1 RMS(Cart)=  0.01588296 RMS(Int)=  0.00004948
 Iteration  2 RMS(Cart)=  0.00004946 RMS(Int)=  0.00000480
 Iteration  3 RMS(Cart)=  0.00000000 RMS(Int)=  0.00000480
 Variable       Old X    -DE/DX   Delta X   Delta X   Delta X     New X
                                 (Linear)    (Quad)   (Total)
    R1        2.71803  -0.01648   0.00000  -0.01624  -0.01624   2.70179
    R2        3.07264  -0.01363   0.00000  -0.02922  -0.02922   3.04342
    R3        2.73472  -0.01715   0.00000  -0.01762  -0.01762   2.71710
    R4        3.55601  -0.00572   0.00000  -0.02757  -0.02757   3.52844
    R5        1.83265  -0.00037   0.00000  -0.00069  -0.00069   1.83195
    R6        2.50441  -0.00505   0.00000  -0.00831  -0.00831   2.49610
    R7        2.50829  -0.00524   0.00000  -0.00870  -0.00870   2.49960
    R8        2.52011  -0.00589   0.00000  -0.01002  -0.01002   2.51009
    A1        1.87101  -0.00049   0.00000  -0.00399  -0.00399   1.86702
    A2        2.16909  -0.00028   0.00000  -0.00199  -0.00199   2.16709
    A3        1.87731   0.00009   0.00000  -0.00005  -0.00005   1.87726
    A4        1.90040   0.00031   0.00000   0.00325   0.00324   1.90364
    A5        1.72466   0.00019   0.00000   0.00129   0.00128   1.72594
    A6        1.87019   0.00028   0.00000   0.00227   0.00227   1.87246
    A7        1.89918  -0.00308   0.00000  -0.01910  -0.01910   1.88008
    A8        1.92129  -0.00117   0.00000  -0.00480  -0.00482   1.91648
    A9        1.89554  -0.00109   0.00000  -0.00412  -0.00413   1.89141
   A10        1.90193  -0.00103   0.00000  -0.00416  -0.00417   1.89776
   A11        1.91777   0.00115   0.00000   0.00472   0.00471   1.92248
   A12        1.91411   0.00104   0.00000   0.00373   0.00372   1.91783
   A13        1.91301   0.00107   0.00000   0.00452   0.00452   1.91752
    D1        2.67615  -0.00022   0.00000  -0.00246  -0.00246   2.67369
    D2        0.28843   0.00030   0.00000   0.00086   0.00087   0.28930
    D3       -1.65976  -0.00019   0.00000  -0.00317  -0.00317  -1.66293
    D4        0.84479  -0.00004   0.00000   0.01051   0.01051   0.85530
    D5       -1.25551  -0.00007   0.00000   0.01019   0.01019  -1.24532
    D6        2.94460  -0.00013   0.00000   0.00956   0.00956   2.95416
    D7       -1.09746   0.00039   0.00000   0.01436   0.01436  -1.08310
    D8        3.08542   0.00036   0.00000   0.01404   0.01404   3.09946
    D9        1.00235   0.00030   0.00000   0.01340   0.01341   1.01576
   D10       -3.06960  -0.00011   0.00000   0.00963   0.00963  -3.05997
   D11        1.11328  -0.00014   0.00000   0.00931   0.00931   1.12259
   D12       -0.96979  -0.00020   0.00000   0.00868   0.00868  -0.96112
         Item               Value     Threshold  Converged?
 Maximum Force            0.017151     0.000450     NO 
 RMS     Force            0.005193     0.000300     NO 
 Maximum Displacement     0.037923     0.001800     NO 
 RMS     Displacement     0.015899     0.001200     NO 
 Predicted change in Energy=-6.898895D-04
 GradGradGradGradGradGradGradGradGradGradGradGradGradGradGradGradGradGrad

                          Input orientation:                          
 ---------------------------------------------------------------------
 Center     Atomic      Atomic             Coordinates (Angstroms)
 Number     Number       Type             X           Y           Z
 ---------------------------------------------------------------------
      1         16           0       -0.786641    0.567040   -0.000763
      2          8           0       -1.152676   -0.629556   -0.692350
      3          8           0       -1.177052    1.801650   -0.958394
      4          1           0       -1.345170    2.571450   -0.393650
      5          8           0       -1.182905    0.874178    1.346824
      6          6           0        1.072796    0.717139   -0.080098
      7          9           0        1.483242    0.542843   -1.323428
      8          9           0        1.599498   -0.206043    0.707261
      9          9           0        1.421755    1.926008    0.345576
 ---------------------------------------------------------------------
                    Distance matrix (angstroms):
                    1          2          3          4          5
     1  S    0.000000
     2  O    1.429727   0.000000
     3  O    1.610509   2.445841   0.000000
     4  H    2.117539   3.220670   0.969428   0.000000
     5  O    1.437828   2.533843   2.484807   2.436454   0.000000
     6  C    1.867171   2.672296   2.647524   3.063224   2.673752
     7  F    2.627241   2.953108   2.965639   3.602728   3.787924
     8  F    2.606264   3.116526   3.809785   4.194942   3.052488
     9  F    2.616057   3.773048   2.910258   2.935800   2.982129
                    6          7          8          9
     6  C    0.000000
     7  F    1.320877   0.000000
     8  F    1.322729   2.167496   0.000000
     9  F    1.328282   2.168524   2.169803   0.000000
 Stoichiometry    CHF3O3S
 Framework group  C1[X(CHF3O3S)]
 Deg. of freedom    21
 Full point group                 C1      NOp   1
 Largest Abelian subgroup         C1      NOp   1
 Largest concise Abelian subgroup C1      NOp   1
                         Standard orientation:                         
 ---------------------------------------------------------------------
 Center     Atomic      Atomic             Coordinates (Angstroms)
 Number     Number       Type             X           Y           Z
 ---------------------------------------------------------------------
      1         16           0       -0.853435   -0.143669    0.079508
      2          8           0       -1.219422   -1.351722   -0.591895
      3          8           0       -1.244109    1.074685   -0.898615
      4          1           0       -1.412243    1.853817   -0.346820
      5          8           0       -1.249563    0.185950    1.421813
      6          6           0        1.005974    0.005287   -0.002570
      7          9           0        1.416282   -0.189761   -1.242860
      8          9           0        1.532881   -0.904520    0.800071
      9          9           0        1.354850    1.221154    0.402753
 ---------------------------------------------------------------------
 Rotational constants (GHZ):      2.6236324      1.5604171      1.5522339
 Standard basis: GTBas3 (6D, 7F)
 There are   257 symmetry adapted cartesian basis functions of A   symmetry.
 There are   233 symmetry adapted basis functions of A   symmetry.
   233 basis functions,   383 primitive gaussians,   257 cartesian basis functions
    37 alpha electrons       37 beta electrons
       nuclear repulsion energy       567.6250127701 Hartrees.
 NAtoms=    9 NActive=    9 NUniq=    9 SFac= 1.00D+00 NAtFMM=   60 NAOKFM=F Big=F
 Integral buffers will be    131072 words long.
 Raffenetti 2 integral format.
 Two-electron integral symmetry is turned on.
 One-electron integrals computed using PRISM.
 NBasis=   233 RedAO= T EigKep=  1.50D-03  NBF=   233
 NBsUse=   233 1.00D-06 EigRej= -1.00D+00 NBFU=   233
 Initial guess from the checkpoint file:  "CF3SO3Hg4.chk"
 B after Tr=     0.000000    0.000000    0.000000
         Rot=    0.999964    0.008490    0.000054    0.000173 Ang=   0.97 deg.
 ExpMin= 1.17D-01 ExpMax= 2.19D+04 ExpMxC= 3.30D+03 IAcc=1 IRadAn=         1 AccDes= 0.00D+00
 Harris functional with IExCor=  402 and IRadAn=       1 diagonalized for initial guess.
 HarFok:  IExCor=  402 AccDes= 0.00D+00 IRadAn=         1 IDoV= 1 UseB2=F ITyADJ=14
 ICtDFT=  3500011 ScaDFX=  1.000000  1.000000  1.000000  1.000000
 FoFCou: FMM=F IPFlag=           0 FMFlag=      100000 FMFlg1=           0
         NFxFlg=           0 DoJE=T BraDBF=F KetDBF=T FulRan=T
         wScrn=  0.000000 ICntrl=     500 IOpCl=  0 I1Cent=   200000004 NGrid=           0
         NMat0=    1 NMatS0=      1 NMatT0=    0 NMatD0=    1 NMtDS0=    0 NMtDT0=    0
 Petite list used in FoFCou.
 Requested convergence on RMS density matrix=1.00D-08 within 128 cycles.
 Requested convergence on MAX density matrix=1.00D-06.
 Requested convergence on             energy=1.00D-06.
 No special actions if energy rises.
 Integral accuracy reduced to 1.0D-05 until final iterations.
 Initial convergence to 1.0D-05 achieved.  Increase integral accuracy.
 SCF Done:  E(RB3LYP) =  -962.081735712     A.U. after   11 cycles
            NFock= 11  Conv=0.63D-08     -V/T= 2.0047
 Calling FoFJK, ICntrl=      2127 FMM=F ISym2X=0 I1Cent= 0 IOpClX= 0 NMat=1 NMatS=1 NMatT=0.
 ***** Axes restored to original set *****
 -------------------------------------------------------------------
 Center     Atomic                   Forces (Hartrees/Bohr)
 Number     Number              X              Y              Z
 -------------------------------------------------------------------
      1       16          -0.002974703    0.000186663   -0.001474712
      2        8           0.001419240    0.003854051    0.002994642
      3        8           0.001039190   -0.003465218    0.003920496
      4        1          -0.000280949    0.000734948   -0.000478856
      5        8           0.001474471   -0.001118367   -0.005286878
      6        6          -0.002281599   -0.000242658    0.000562527
      7        9           0.000474271    0.000120298    0.000280494
      8        9           0.000516019    0.000317353   -0.000344677
      9        9           0.000614059   -0.000387070   -0.000173035
 -------------------------------------------------------------------
 Cartesian Forces:  Max     0.005286878 RMS     0.001967497

 GradGradGradGradGradGradGradGradGradGradGradGradGradGradGradGradGradGrad
 Berny optimization.
 Using GEDIIS/GDIIS optimizer.
 FormGI is forming the generalized inverse of G from B-inverse, IUseBI=4.
 Internal  Forces:  Max     0.005600800 RMS     0.001596371
 Search for a local minimum.
 Step number   2 out of a maximum of   43
 All quantities printed in internal units (Hartrees-Bohrs-Radians)
 Mixed Optimization -- RFO/linear search
 Update second derivatives using D2CorX and points    1    2
 DE= -8.34D-04 DEPred=-6.90D-04 R= 1.21D+00
 TightC=F SS=  1.41D+00  RLast= 6.41D-02 DXNew= 5.0454D-01 1.9233D-01
 Trust test= 1.21D+00 RLast= 6.41D-02 DXMaxT set to 3.00D-01
 ITU=  1  0
 Use linear search instead of GDIIS.
     Eigenvalues ---    0.00229   0.02275   0.08653   0.08875   0.09104
     Eigenvalues ---    0.10730   0.15850   0.16769   0.19757   0.20346
     Eigenvalues ---    0.24973   0.25000   0.25000   0.26470   0.39165
     Eigenvalues ---    0.53449   0.58969   0.60322   0.61405   0.84367
     Eigenvalues ---    0.99739
 RFO step:  Lambda=-1.40588535D-04 EMin= 2.29340979D-03
 Quartic linear search produced a step of  0.24129.
 Iteration  1 RMS(Cart)=  0.00475012 RMS(Int)=  0.00001871
 Iteration  2 RMS(Cart)=  0.00002247 RMS(Int)=  0.00000608
 Iteration  3 RMS(Cart)=  0.00000000 RMS(Int)=  0.00000608
 Variable       Old X    -DE/DX   Delta X   Delta X   Delta X     New X
                                 (Linear)    (Quad)   (Total)
    R1        2.70179  -0.00504  -0.00392  -0.00385  -0.00777   2.69402
    R2        3.04342  -0.00431  -0.00705  -0.00720  -0.01426   3.02917
    R3        2.71710  -0.00560  -0.00425  -0.00463  -0.00888   2.70822
    R4        3.52844  -0.00071  -0.00665   0.00007  -0.00658   3.52186
    R5        1.83195   0.00036  -0.00017   0.00093   0.00077   1.83272
    R6        2.49610  -0.00013  -0.00201   0.00094  -0.00107   2.49502
    R7        2.49960  -0.00022  -0.00210   0.00082  -0.00128   2.49832
    R8        2.51009  -0.00025  -0.00242   0.00093  -0.00149   2.50860
    A1        1.86702   0.00045  -0.00096   0.00681   0.00584   1.87286
    A2        2.16709  -0.00012  -0.00048  -0.00250  -0.00298   2.16411
    A3        1.87726  -0.00026  -0.00001  -0.00120  -0.00122   1.87603
    A4        1.90364  -0.00045   0.00078  -0.00378  -0.00300   1.90064
    A5        1.72594   0.00062   0.00031   0.00415   0.00445   1.73039
    A6        1.87246  -0.00007   0.00055  -0.00196  -0.00142   1.87104
    A7        1.88008   0.00156  -0.00461   0.01520   0.01059   1.89068
    A8        1.91648   0.00060  -0.00116   0.00353   0.00236   1.91883
    A9        1.89141   0.00084  -0.00100   0.00478   0.00377   1.89518
   A10        1.89776   0.00099  -0.00101   0.00577   0.00475   1.90251
   A11        1.92248  -0.00077   0.00114  -0.00492  -0.00379   1.91868
   A12        1.91783  -0.00080   0.00090  -0.00452  -0.00363   1.91420
   A13        1.91752  -0.00082   0.00109  -0.00436  -0.00328   1.91424
    D1        2.67369  -0.00011  -0.00059  -0.00179  -0.00239   2.67129
    D2        0.28930   0.00005   0.00021  -0.00102  -0.00081   0.28849
    D3       -1.66293  -0.00001  -0.00076   0.00050  -0.00026  -1.66319
    D4        0.85530   0.00037   0.00254   0.00202   0.00456   0.85986
    D5       -1.24532   0.00044   0.00246   0.00300   0.00546  -1.23986
    D6        2.95416   0.00037   0.00231   0.00218   0.00448   2.95864
    D7       -1.08310  -0.00030   0.00346  -0.00669  -0.00323  -1.08633
    D8        3.09946  -0.00023   0.00339  -0.00572  -0.00233   3.09713
    D9        1.01576  -0.00030   0.00324  -0.00654  -0.00330   1.01245
   D10       -3.05997  -0.00004   0.00232  -0.00366  -0.00133  -3.06130
   D11        1.12259   0.00003   0.00225  -0.00268  -0.00043   1.12216
   D12       -0.96112  -0.00004   0.00209  -0.00350  -0.00141  -0.96252
         Item               Value     Threshold  Converged?
 Maximum Force            0.005601     0.000450     NO 
 RMS     Force            0.001596     0.000300     NO 
 Maximum Displacement     0.013664     0.001800     NO 
 RMS     Displacement     0.004746     0.001200     NO 
 Predicted change in Energy=-1.043249D-04
 GradGradGradGradGradGradGradGradGradGradGradGradGradGradGradGradGradGrad

                          Input orientation:                          
 ---------------------------------------------------------------------
 Center     Atomic      Atomic             Coordinates (Angstroms)
 Number     Number       Type             X           Y           Z
 ---------------------------------------------------------------------
      1         16           0       -0.786361    0.568958   -0.003786
      2          8           0       -1.149419   -0.627410   -0.688821
      3          8           0       -1.178806    1.799720   -0.952843
      4          1           0       -1.350280    2.573386   -0.393721
      5          8           0       -1.181206    0.874392    1.339593
      6          6           0        1.069919    0.716531   -0.079761
      7          9           0        1.485094    0.541968   -1.320881
      8          9           0        1.598467   -0.205788    0.706233
      9          9           0        1.425439    1.922952    0.344964
 ---------------------------------------------------------------------
                    Distance matrix (angstroms):
                    1          2          3          4          5
     1  S    0.000000
     2  O    1.425616   0.000000
     3  O    1.602965   2.441624   0.000000
     4  H    2.118439   3.220640   0.969835   0.000000
     5  O    1.433129   2.524061   2.472145   2.433011   0.000000
     6  C    1.863687   2.665070   2.644302   3.066569   2.665905
     7  F    2.625828   2.950864   2.968797   3.609104   3.781240
     8  F    2.606101   3.110437   3.806290   4.198668   3.048691
     9  F    2.616674   3.768680   2.912315   2.945053   2.980497
                    6          7          8          9
     6  C    0.000000
     7  F    1.320310   0.000000
     8  F    1.322053   2.163604   0.000000
     9  F    1.327493   2.164651   2.166100   0.000000
 Stoichiometry    CHF3O3S
 Framework group  C1[X(CHF3O3S)]
 Deg. of freedom    21
 Full point group                 C1      NOp   1
 Largest Abelian subgroup         C1      NOp   1
 Largest concise Abelian subgroup C1      NOp   1
                         Standard orientation:                         
 ---------------------------------------------------------------------
 Center     Atomic      Atomic             Coordinates (Angstroms)
 Number     Number       Type             X           Y           Z
 ---------------------------------------------------------------------
      1         16           0       -0.853550   -0.142738    0.077875
      2          8           0       -1.215211   -1.353573   -0.582018
      3          8           0       -1.248657    1.067534   -0.896102
      4          1           0       -1.420948    1.852315   -0.352950
      5          8           0       -1.247885    0.189762    1.414962
      6          6           0        1.002436    0.006161   -0.002570
      7          9           0        1.416968   -0.193353   -1.240139
      8          9           0        1.533034   -0.898890    0.801901
      9          9           0        1.356349    1.221657    0.396866
 ---------------------------------------------------------------------
 Rotational constants (GHZ):      2.6377986      1.5635965      1.5538459
 Standard basis: GTBas3 (6D, 7F)
 There are   257 symmetry adapted cartesian basis functions of A   symmetry.
 There are   233 symmetry adapted basis functions of A   symmetry.
   233 basis functions,   383 primitive gaussians,   257 cartesian basis functions
    37 alpha electrons       37 beta electrons
       nuclear repulsion energy       568.5856446979 Hartrees.
 NAtoms=    9 NActive=    9 NUniq=    9 SFac= 1.00D+00 NAtFMM=   60 NAOKFM=F Big=F
 Integral buffers will be    131072 words long.
 Raffenetti 2 integral format.
 Two-electron integral symmetry is turned on.
 One-electron integrals computed using PRISM.
 NBasis=   233 RedAO= T EigKep=  1.50D-03  NBF=   233
 NBsUse=   233 1.00D-06 EigRej= -1.00D+00 NBFU=   233
 Initial guess from the checkpoint file:  "CF3SO3Hg4.chk"
 B after Tr=     0.000000    0.000000    0.000000
         Rot=    0.999998    0.001963   -0.000212   -0.000521 Ang=   0.23 deg.
 Requested convergence on RMS density matrix=1.00D-08 within 128 cycles.
 Requested convergence on MAX density matrix=1.00D-06.
 Requested convergence on             energy=1.00D-06.
 No special actions if energy rises.
 SCF Done:  E(RB3LYP) =  -962.081837010     A.U. after    9 cycles
            NFock=  9  Conv=0.10D-07     -V/T= 2.0046
 Calling FoFJK, ICntrl=      2127 FMM=F ISym2X=0 I1Cent= 0 IOpClX= 0 NMat=1 NMatS=1 NMatT=0.
 ***** Axes restored to original set *****
 -------------------------------------------------------------------
 Center     Atomic                   Forces (Hartrees/Bohr)
 Number     Number              X              Y              Z
 -------------------------------------------------------------------
      1       16          -0.000353828    0.000949384   -0.000481104
      2        8           0.000098633   -0.000089806   -0.000294766
      3        8           0.000331467   -0.000773904    0.000709161
      4        1          -0.000023882   -0.000126802   -0.000335385
      5        8          -0.000013569    0.000028827    0.000586200
      6        6          -0.000333818   -0.000096522    0.000122599
      7        9           0.000210264   -0.000141092   -0.001352310
      8        9           0.000056441   -0.000765755    0.000629843
      9        9           0.000028291    0.001015671    0.000415762
 -------------------------------------------------------------------
 Cartesian Forces:  Max     0.001352310 RMS     0.000518842

 GradGradGradGradGradGradGradGradGradGradGradGradGradGradGradGradGradGrad
 Berny optimization.
 Using GEDIIS/GDIIS optimizer.
 FormGI is forming the generalized inverse of G from B-inverse, IUseBI=4.
 Internal  Forces:  Max     0.001354517 RMS     0.000447407
 Search for a local minimum.
 Step number   3 out of a maximum of   43
 All quantities printed in internal units (Hartrees-Bohrs-Radians)
 Mixed Optimization -- En-DIIS/RFO-DIIS
 Update second derivatives using D2CorX and points    1    2    3
 DE= -1.01D-04 DEPred=-1.04D-04 R= 9.71D-01
 TightC=F SS=  1.41D+00  RLast= 2.77D-02 DXNew= 5.0454D-01 8.3108D-02
 Trust test= 9.71D-01 RLast= 2.77D-02 DXMaxT set to 3.00D-01
 ITU=  1  1  0
 Use linear search instead of GDIIS.
     Eigenvalues ---    0.00230   0.02274   0.08684   0.08823   0.09042
     Eigenvalues ---    0.11013   0.15692   0.16082   0.19859   0.20585
     Eigenvalues ---    0.24904   0.25000   0.25010   0.28026   0.34593
     Eigenvalues ---    0.53557   0.59132   0.60337   0.64498   0.90117
     Eigenvalues ---    0.99626
 RFO step:  Lambda=-1.97880126D-05 EMin= 2.29529116D-03
 Quartic linear search produced a step of -0.02810.
 Iteration  1 RMS(Cart)=  0.00879781 RMS(Int)=  0.00003730
 Iteration  2 RMS(Cart)=  0.00003965 RMS(Int)=  0.00000047
 Iteration  3 RMS(Cart)=  0.00000000 RMS(Int)=  0.00000047
 Variable       Old X    -DE/DX   Delta X   Delta X   Delta X     New X
                                 (Linear)    (Quad)   (Total)
    R1        2.69402   0.00019   0.00022  -0.00060  -0.00039   2.69364
    R2        3.02917  -0.00098   0.00040  -0.00350  -0.00309   3.02607
    R3        2.70822   0.00056   0.00025  -0.00033  -0.00008   2.70814
    R4        3.52186  -0.00004   0.00019  -0.00096  -0.00078   3.52108
    R5        1.83272  -0.00029  -0.00002  -0.00046  -0.00048   1.83224
    R6        2.49502   0.00135   0.00003   0.00202   0.00205   2.49708
    R7        2.49832   0.00094   0.00004   0.00134   0.00138   2.49969
    R8        2.50860   0.00106   0.00004   0.00155   0.00159   2.51019
    A1        1.87286  -0.00017  -0.00016  -0.00127  -0.00144   1.87142
    A2        2.16411   0.00016   0.00008   0.00075   0.00084   2.16495
    A3        1.87603  -0.00019   0.00003  -0.00158  -0.00155   1.87449
    A4        1.90064   0.00031   0.00008   0.00226   0.00235   1.90299
    A5        1.73039  -0.00013  -0.00013  -0.00035  -0.00048   1.72991
    A6        1.87104  -0.00005   0.00004  -0.00010  -0.00006   1.87098
    A7        1.89068   0.00039  -0.00030   0.00313   0.00283   1.89351
    A8        1.91883  -0.00022  -0.00007  -0.00058  -0.00065   1.91819
    A9        1.89518  -0.00052  -0.00011  -0.00179  -0.00190   1.89328
   A10        1.90251  -0.00033  -0.00013  -0.00093  -0.00106   1.90145
   A11        1.91868   0.00038   0.00011   0.00124   0.00135   1.92003
   A12        1.91420   0.00030   0.00010   0.00102   0.00112   1.91533
   A13        1.91424   0.00037   0.00009   0.00100   0.00109   1.91533
    D1        2.67129   0.00020   0.00007   0.00066   0.00073   2.67202
    D2        0.28849  -0.00013   0.00002  -0.00114  -0.00111   0.28737
    D3       -1.66319  -0.00011   0.00001  -0.00158  -0.00157  -1.66476
    D4        0.85986  -0.00008  -0.00013   0.01342   0.01329   0.87315
    D5       -1.23986  -0.00009  -0.00015   0.01335   0.01320  -1.22666
    D6        2.95864  -0.00004  -0.00013   0.01374   0.01361   2.97225
    D7       -1.08633   0.00021   0.00009   0.01541   0.01550  -1.07082
    D8        3.09713   0.00020   0.00007   0.01535   0.01542   3.11255
    D9        1.01245   0.00024   0.00009   0.01573   0.01583   1.02828
   D10       -3.06130  -0.00006   0.00004   0.01312   0.01316  -3.04815
   D11        1.12216  -0.00007   0.00001   0.01306   0.01307   1.13523
   D12       -0.96252  -0.00003   0.00004   0.01344   0.01348  -0.94905
         Item               Value     Threshold  Converged?
 Maximum Force            0.001355     0.000450     NO 
 RMS     Force            0.000447     0.000300     NO 
 Maximum Displacement     0.023154     0.001800     NO 
 RMS     Displacement     0.008801     0.001200     NO 
 Predicted change in Energy=-9.984431D-06
 GradGradGradGradGradGradGradGradGradGradGradGradGradGradGradGradGradGrad

                          Input orientation:                          
 ---------------------------------------------------------------------
 Center     Atomic      Atomic             Coordinates (Angstroms)
 Number     Number       Type             X           Y           Z
 ---------------------------------------------------------------------
      1         16           0       -0.786065    0.570196   -0.001011
      2          8           0       -1.147900   -0.628770   -0.681712
      3          8           0       -1.177913    1.794389   -0.956028
      4          1           0       -1.350591    2.572282   -0.403623
      5          8           0       -1.179441    0.880399    1.341659
      6          6           0        1.069770    0.716991   -0.079269
      7          9           0        1.481848    0.553816   -1.324119
      8          9           0        1.597124   -0.214519    0.697864
      9          9           0        1.426015    1.919924    0.357217
 ---------------------------------------------------------------------
                    Distance matrix (angstroms):
                    1          2          3          4          5
     1  S    0.000000
     2  O    1.425412   0.000000
     3  O    1.601328   2.438821   0.000000
     4  H    2.118757   3.219495   0.969581   0.000000
     5  O    1.433085   2.524404   2.472801   2.436754   0.000000
     6  C    1.863276   2.663094   2.642266   3.066831   2.665462
     7  F    2.625703   2.954111   2.957844   3.597809   3.780938
     8  F    2.604572   3.099999   3.804195   4.203399   3.053299
     9  F    2.615987   3.768322   2.919042   2.951946   2.972901
                    6          7          8          9
     6  C    0.000000
     7  F    1.321396   0.000000
     8  F    1.322781   2.166113   0.000000
     9  F    1.328337   2.167085   2.168218   0.000000
 Stoichiometry    CHF3O3S
 Framework group  C1[X(CHF3O3S)]
 Deg. of freedom    21
 Full point group                 C1      NOp   1
 Largest Abelian subgroup         C1      NOp   1
 Largest concise Abelian subgroup C1      NOp   1
                         Standard orientation:                         
 ---------------------------------------------------------------------
 Center     Atomic      Atomic             Coordinates (Angstroms)
 Number     Number       Type             X           Y           Z
 ---------------------------------------------------------------------
      1         16           0       -0.853328   -0.141949    0.078267
      2          8           0       -1.213281   -1.353039   -0.581652
      3          8           0       -1.247072    1.064979   -0.897715
      4          1           0       -1.420972    1.852012   -0.358805
      5          8           0       -1.247206    0.190748    1.415392
      6          6           0        1.002277    0.006371   -0.002536
      7          9           0        1.414627   -0.177605   -1.244392
      8          9           0        1.531074   -0.910775    0.790539
      9          9           0        1.356638    1.217207    0.413136
 ---------------------------------------------------------------------
 Rotational constants (GHZ):      2.6357204      1.5648900      1.5557276
 Standard basis: GTBas3 (6D, 7F)
 There are   257 symmetry adapted cartesian basis functions of A   symmetry.
 There are   233 symmetry adapted basis functions of A   symmetry.
   233 basis functions,   383 primitive gaussians,   257 cartesian basis functions
    37 alpha electrons       37 beta electrons
       nuclear repulsion energy       568.6508320628 Hartrees.
 NAtoms=    9 NActive=    9 NUniq=    9 SFac= 1.00D+00 NAtFMM=   60 NAOKFM=F Big=F
 Integral buffers will be    131072 words long.
 Raffenetti 2 integral format.
 Two-electron integral symmetry is turned on.
 One-electron integrals computed using PRISM.
 NBasis=   233 RedAO= T EigKep=  1.50D-03  NBF=   233
 NBsUse=   233 1.00D-06 EigRej= -1.00D+00 NBFU=   233
 Initial guess from the checkpoint file:  "CF3SO3Hg4.chk"
 B after Tr=     0.000000    0.000000    0.000000
         Rot=    0.999997   -0.002616   -0.000005    0.000100 Ang=  -0.30 deg.
 ExpMin= 1.17D-01 ExpMax= 2.19D+04 ExpMxC= 3.30D+03 IAcc=1 IRadAn=         1 AccDes= 0.00D+00
 Harris functional with IExCor=  402 and IRadAn=       1 diagonalized for initial guess.
 HarFok:  IExCor=  402 AccDes= 0.00D+00 IRadAn=         1 IDoV= 1 UseB2=F ITyADJ=14
 ICtDFT=  3500011 ScaDFX=  1.000000  1.000000  1.000000  1.000000
 FoFCou: FMM=F IPFlag=           0 FMFlag=      100000 FMFlg1=           0
         NFxFlg=           0 DoJE=T BraDBF=F KetDBF=T FulRan=T
         wScrn=  0.000000 ICntrl=     500 IOpCl=  0 I1Cent=   200000004 NGrid=           0
         NMat0=    1 NMatS0=      1 NMatT0=    0 NMatD0=    1 NMtDS0=    0 NMtDT0=    0
 Petite list used in FoFCou.
 Requested convergence on RMS density matrix=1.00D-08 within 128 cycles.
 Requested convergence on MAX density matrix=1.00D-06.
 Requested convergence on             energy=1.00D-06.
 No special actions if energy rises.
 Integral accuracy reduced to 1.0D-05 until final iterations.
 Initial convergence to 1.0D-05 achieved.  Increase integral accuracy.
 SCF Done:  E(RB3LYP) =  -962.081847149     A.U. after   10 cycles
            NFock= 10  Conv=0.33D-08     -V/T= 2.0046
 Calling FoFJK, ICntrl=      2127 FMM=F ISym2X=0 I1Cent= 0 IOpClX= 0 NMat=1 NMatS=1 NMatT=0.
 ***** Axes restored to original set *****
 -------------------------------------------------------------------
 Center     Atomic                   Forces (Hartrees/Bohr)
 Number     Number              X              Y              Z
 -------------------------------------------------------------------
      1       16           0.000322433    0.000419573   -0.000301656
      2        8          -0.000153613   -0.000452468   -0.000260846
      3        8           0.000002118   -0.000106569    0.000274927
      4        1          -0.000049619    0.000015328   -0.000135924
      5        8          -0.000197652    0.000114031    0.000449051
      6        6          -0.000564300   -0.000076122    0.000158037
      7        9           0.000234424    0.000024710   -0.000160447
      8        9           0.000194973   -0.000067785    0.000005698
      9        9           0.000211236    0.000129302   -0.000028839
 -------------------------------------------------------------------
 Cartesian Forces:  Max     0.000564300 RMS     0.000240719

 GradGradGradGradGradGradGradGradGradGradGradGradGradGradGradGradGradGrad
 Berny optimization.
 Using GEDIIS/GDIIS optimizer.
 FormGI is forming the generalized inverse of G from B-inverse, IUseBI=4.
 Internal  Forces:  Max     0.000542622 RMS     0.000177176
 Search for a local minimum.
 Step number   4 out of a maximum of   43
 All quantities printed in internal units (Hartrees-Bohrs-Radians)
 Mixed Optimization -- En-DIIS/RFO-DIIS
 Swapping is turned off.
 Update second derivatives using D2CorX and points    1    2    3    4
 DE= -1.01D-05 DEPred=-9.98D-06 R= 1.02D+00
 TightC=F SS=  1.41D+00  RLast= 4.29D-02 DXNew= 5.0454D-01 1.2875D-01
 Trust test= 1.02D+00 RLast= 4.29D-02 DXMaxT set to 3.00D-01
 ITU=  1  1  1  0
     Eigenvalues ---    0.00212   0.02267   0.08725   0.08841   0.09078
     Eigenvalues ---    0.10533   0.14872   0.16252   0.19819   0.20490
     Eigenvalues ---    0.24715   0.24999   0.25000   0.30018   0.39161
     Eigenvalues ---    0.53540   0.58949   0.60333   0.60975   0.90780
     Eigenvalues ---    1.00355
 En-DIIS/RFO-DIIS IScMMF=        0 using points:     4    3
 RFO step:  Lambda=-1.42962919D-06.
 DidBck=F Rises=F RFO-DIIS coefs:    1.04171   -0.04171
 Iteration  1 RMS(Cart)=  0.00258504 RMS(Int)=  0.00000330
 Iteration  2 RMS(Cart)=  0.00000340 RMS(Int)=  0.00000014
 Iteration  3 RMS(Cart)=  0.00000000 RMS(Int)=  0.00000014
 Variable       Old X    -DE/DX   Delta X   Delta X   Delta X     New X
                                 (Linear)    (Quad)   (Total)
    R1        2.69364   0.00054  -0.00002   0.00047   0.00045   2.69409
    R2        3.02607  -0.00013  -0.00013  -0.00062  -0.00075   3.02533
    R3        2.70814   0.00050   0.00000   0.00047   0.00046   2.70860
    R4        3.52108   0.00007  -0.00003   0.00014   0.00011   3.52119
    R5        1.83224  -0.00005  -0.00002  -0.00015  -0.00017   1.83207
    R6        2.49708   0.00022   0.00009   0.00047   0.00055   2.49763
    R7        2.49969   0.00013   0.00006   0.00027   0.00033   2.50002
    R8        2.51019   0.00016   0.00007   0.00033   0.00039   2.51059
    A1        1.87142  -0.00005  -0.00006  -0.00061  -0.00067   1.87075
    A2        2.16495  -0.00002   0.00003  -0.00009  -0.00005   2.16490
    A3        1.87449  -0.00002  -0.00006  -0.00015  -0.00021   1.87427
    A4        1.90299  -0.00006   0.00010  -0.00004   0.00005   1.90304
    A5        1.72991   0.00011  -0.00002   0.00043   0.00041   1.73033
    A6        1.87098   0.00008   0.00000   0.00059   0.00058   1.87156
    A7        1.89351   0.00024   0.00012   0.00146   0.00158   1.89509
    A8        1.91819   0.00022  -0.00003   0.00066   0.00063   1.91882
    A9        1.89328   0.00018  -0.00008   0.00056   0.00048   1.89376
   A10        1.90145   0.00025  -0.00004   0.00090   0.00086   1.90231
   A11        1.92003  -0.00021   0.00006  -0.00077  -0.00071   1.91932
   A12        1.91533  -0.00025   0.00005  -0.00100  -0.00096   1.91437
   A13        1.91533  -0.00017   0.00005  -0.00031  -0.00027   1.91506
    D1        2.67202  -0.00006   0.00003  -0.00085  -0.00082   2.67120
    D2        0.28737   0.00007  -0.00005  -0.00019  -0.00024   0.28713
    D3       -1.66476  -0.00005  -0.00007  -0.00101  -0.00108  -1.66584
    D4        0.87315   0.00000   0.00055   0.00308   0.00363   0.87679
    D5       -1.22666   0.00002   0.00055   0.00328   0.00383  -1.22283
    D6        2.97225  -0.00003   0.00057   0.00281   0.00338   2.97563
    D7       -1.07082   0.00002   0.00065   0.00361   0.00426  -1.06657
    D8        3.11255   0.00003   0.00064   0.00381   0.00445   3.11700
    D9        1.02828  -0.00001   0.00066   0.00334   0.00400   1.03228
   D10       -3.04815   0.00001   0.00055   0.00330   0.00385  -3.04430
   D11        1.13523   0.00003   0.00055   0.00350   0.00404   1.13927
   D12       -0.94905  -0.00001   0.00056   0.00303   0.00359  -0.94545
         Item               Value     Threshold  Converged?
 Maximum Force            0.000543     0.000450     NO 
 RMS     Force            0.000177     0.000300     YES
 Maximum Displacement     0.006147     0.001800     NO 
 RMS     Displacement     0.002585     0.001200     NO 
 Predicted change in Energy=-1.266993D-06
 GradGradGradGradGradGradGradGradGradGradGradGradGradGradGradGradGradGrad

                          Input orientation:                          
 ---------------------------------------------------------------------
 Center     Atomic      Atomic             Coordinates (Angstroms)
 Number     Number       Type             X           Y           Z
 ---------------------------------------------------------------------
      1         16           0       -0.786096    0.570634   -0.000174
      2          8           0       -1.148116   -0.629103   -0.679917
      3          8           0       -1.178373    1.793036   -0.956646
      4          1           0       -1.352167    2.572234   -0.406592
      5          8           0       -1.180028    0.882329    1.342250
      6          6           0        1.069815    0.716927   -0.078927
      7          9           0        1.482113    0.557069   -1.324444
      8          9           0        1.597835   -0.216986    0.695161
      9          9           0        1.427864    1.918568    0.360267
 ---------------------------------------------------------------------
                    Distance matrix (angstroms):
                    1          2          3          4          5
     1  S    0.000000
     2  O    1.425650   0.000000
     3  O    1.600933   2.438084   0.000000
     4  H    2.119437   3.219456   0.969491   0.000000
     5  O    1.433331   2.524798   2.472714   2.438003   0.000000
     6  C    1.863332   2.663119   2.642490   3.068473   2.666251
     7  F    2.626527   2.956437   2.956531   3.596732   3.782069
     8  F    2.605180   3.098537   3.804732   4.206675   3.056754
     9  F    2.616957   3.769388   2.922754   2.957013   2.973077
                    6          7          8          9
     6  C    0.000000
     7  F    1.321688   0.000000
     8  F    1.322955   2.165954   0.000000
     9  F    1.328545   2.166766   2.168325   0.000000
 Stoichiometry    CHF3O3S
 Framework group  C1[X(CHF3O3S)]
 Deg. of freedom    21
 Full point group                 C1      NOp   1
 Largest Abelian subgroup         C1      NOp   1
 Largest concise Abelian subgroup C1      NOp   1
                         Standard orientation:                         
 ---------------------------------------------------------------------
 Center     Atomic      Atomic             Coordinates (Angstroms)
 Number     Number       Type             X           Y           Z
 ---------------------------------------------------------------------
      1         16           0       -0.853543   -0.141689    0.078472
      2          8           0       -1.213306   -1.353511   -0.580722
      3          8           0       -1.247617    1.063478   -0.898905
      4          1           0       -1.422910    1.851683   -0.362326
      5          8           0       -1.248416    0.192277    1.415251
      6          6           0        1.002139    0.006413   -0.002264
      7          9           0        1.415088   -0.174047   -1.244748
      8          9           0        1.531519   -0.913198    0.787851
      9          9           0        1.358001    1.216013    0.416381
 ---------------------------------------------------------------------
 Rotational constants (GHZ):      2.6359758      1.5639236      1.5548019
 Standard basis: GTBas3 (6D, 7F)
 There are   257 symmetry adapted cartesian basis functions of A   symmetry.
 There are   233 symmetry adapted basis functions of A   symmetry.
   233 basis functions,   383 primitive gaussians,   257 cartesian basis functions
    37 alpha electrons       37 beta electrons
       nuclear repulsion energy       568.5659866638 Hartrees.
 NAtoms=    9 NActive=    9 NUniq=    9 SFac= 1.00D+00 NAtFMM=   60 NAOKFM=F Big=F
 Integral buffers will be    131072 words long.
 Raffenetti 2 integral format.
 Two-electron integral symmetry is turned on.
 One-electron integrals computed using PRISM.
 NBasis=   233 RedAO= T EigKep=  1.50D-03  NBF=   233
 NBsUse=   233 1.00D-06 EigRej= -1.00D+00 NBFU=   233
 Initial guess from the checkpoint file:  "CF3SO3Hg4.chk"
 B after Tr=     0.000000    0.000000    0.000000
         Rot=    1.000000   -0.000323    0.000039    0.000008 Ang=  -0.04 deg.
 Requested convergence on RMS density matrix=1.00D-08 within 128 cycles.
 Requested convergence on MAX density matrix=1.00D-06.
 Requested convergence on             energy=1.00D-06.
 No special actions if energy rises.
 SCF Done:  E(RB3LYP) =  -962.081848419     A.U. after    8 cycles
            NFock=  8  Conv=0.48D-08     -V/T= 2.0046
 Calling FoFJK, ICntrl=      2127 FMM=F ISym2X=0 I1Cent= 0 IOpClX= 0 NMat=1 NMatS=1 NMatT=0.
 ***** Axes restored to original set *****
 -------------------------------------------------------------------
 Center     Atomic                   Forces (Hartrees/Bohr)
 Number     Number              X              Y              Z
 -------------------------------------------------------------------
      1       16           0.000022901    0.000161665   -0.000132798
      2        8           0.000007031   -0.000224450   -0.000058048
      3        8           0.000044100    0.000007834    0.000063074
      4        1          -0.000034360    0.000019660   -0.000013966
      5        8          -0.000009275    0.000027788    0.000139227
      6        6           0.000031399    0.000005103    0.000061595
      7        9          -0.000024406   -0.000006741   -0.000031773
      8        9          -0.000015897    0.000025374   -0.000013077
      9        9          -0.000021493   -0.000016232   -0.000014234
 -------------------------------------------------------------------
 Cartesian Forces:  Max     0.000224450 RMS     0.000070588

 GradGradGradGradGradGradGradGradGradGradGradGradGradGradGradGradGradGrad
 Berny optimization.
 Using GEDIIS/GDIIS optimizer.
 FormGI is forming the generalized inverse of G from B-inverse, IUseBI=4.
 Internal  Forces:  Max     0.000213466 RMS     0.000054374
 Search for a local minimum.
 Step number   5 out of a maximum of   43
 All quantities printed in internal units (Hartrees-Bohrs-Radians)
 Mixed Optimization -- En-DIIS/RFO-DIIS
 Swapping is turned off.
 Update second derivatives using D2CorX and points    1    2    3    4    5
 DE= -1.27D-06 DEPred=-1.27D-06 R= 1.00D+00
 TightC=F SS=  1.41D+00  RLast= 1.21D-02 DXNew= 5.0454D-01 3.6390D-02
 Trust test= 1.00D+00 RLast= 1.21D-02 DXMaxT set to 3.00D-01
 ITU=  1  1  1  1  0
     Eigenvalues ---    0.00215   0.02227   0.08506   0.08832   0.09080
     Eigenvalues ---    0.11354   0.13464   0.16837   0.19775   0.20522
     Eigenvalues ---    0.24823   0.24993   0.25233   0.33484   0.39076
     Eigenvalues ---    0.53642   0.59148   0.59878   0.61255   0.81751
     Eigenvalues ---    0.99871
 En-DIIS/RFO-DIIS IScMMF=        0 using points:     5    4    3
 RFO step:  Lambda=-1.49734376D-07.
 DidBck=F Rises=F RFO-DIIS coefs:    0.99382    0.02199   -0.01581
 Iteration  1 RMS(Cart)=  0.00032439 RMS(Int)=  0.00000010
 Iteration  2 RMS(Cart)=  0.00000009 RMS(Int)=  0.00000004
 Variable       Old X    -DE/DX   Delta X   Delta X   Delta X     New X
                                 (Linear)    (Quad)   (Total)
    R1        2.69409   0.00021  -0.00001   0.00026   0.00025   2.69434
    R2        3.02533   0.00000  -0.00004  -0.00005  -0.00009   3.02523
    R3        2.70860   0.00014   0.00000   0.00020   0.00019   2.70879
    R4        3.52119  -0.00004  -0.00001  -0.00015  -0.00016   3.52102
    R5        1.83207   0.00002  -0.00001   0.00002   0.00001   1.83209
    R6        2.49763   0.00002   0.00003   0.00007   0.00010   2.49773
    R7        2.50002  -0.00003   0.00002  -0.00003  -0.00001   2.50002
    R8        2.51059  -0.00003   0.00002  -0.00003   0.00000   2.51058
    A1        1.87075   0.00008  -0.00002   0.00053   0.00052   1.87127
    A2        2.16490   0.00002   0.00001  -0.00002  -0.00001   2.16489
    A3        1.87427  -0.00007  -0.00002  -0.00041  -0.00044   1.87384
    A4        1.90304   0.00000   0.00004   0.00002   0.00006   1.90310
    A5        1.73033  -0.00002  -0.00001   0.00002   0.00001   1.73033
    A6        1.87156  -0.00001   0.00000  -0.00014  -0.00015   1.87142
    A7        1.89509   0.00005   0.00004   0.00045   0.00049   1.89557
    A8        1.91882  -0.00005  -0.00001  -0.00016  -0.00017   1.91865
    A9        1.89376  -0.00001  -0.00003   0.00002  -0.00001   1.89375
   A10        1.90231   0.00000  -0.00002   0.00009   0.00007   1.90238
   A11        1.91932   0.00003   0.00003  -0.00001   0.00002   1.91934
   A12        1.91437   0.00003   0.00002  -0.00001   0.00002   1.91439
   A13        1.91506   0.00001   0.00002   0.00006   0.00007   1.91513
    D1        2.67120   0.00004   0.00002  -0.00025  -0.00024   2.67097
    D2        0.28713  -0.00005  -0.00002  -0.00069  -0.00070   0.28643
    D3       -1.66584  -0.00002  -0.00002  -0.00054  -0.00056  -1.66640
    D4        0.87679   0.00003   0.00019  -0.00003   0.00016   0.87694
    D5       -1.22283   0.00004   0.00019   0.00006   0.00024  -1.22259
    D6        2.97563   0.00003   0.00019  -0.00008   0.00012   2.97575
    D7       -1.06657  -0.00003   0.00022  -0.00050  -0.00028  -1.06684
    D8        3.11700  -0.00002   0.00022  -0.00041  -0.00019   3.11681
    D9        1.03228  -0.00003   0.00023  -0.00054  -0.00032   1.03196
   D10       -3.04430  -0.00001   0.00018  -0.00048  -0.00030  -3.04460
   D11        1.13927  -0.00001   0.00018  -0.00039  -0.00021   1.13906
   D12       -0.94545  -0.00002   0.00019  -0.00053  -0.00034  -0.94579
         Item               Value     Threshold  Converged?
 Maximum Force            0.000213     0.000450     YES
 RMS     Force            0.000054     0.000300     YES
 Maximum Displacement     0.001031     0.001800     YES
 RMS     Displacement     0.000324     0.001200     YES
 Predicted change in Energy=-1.439738D-07
 Optimization completed.
    -- Stationary point found.
                           ----------------------------
                           !   Optimized Parameters   !
                           ! (Angstroms and Degrees)  !
 --------------------------                            --------------------------
 ! Name  Definition              Value          Derivative Info.                !
 --------------------------------------------------------------------------------
 ! R1    R(1,2)                  1.4257         -DE/DX =    0.0002              !
 ! R2    R(1,3)                  1.6009         -DE/DX =    0.0                 !
 ! R3    R(1,5)                  1.4333         -DE/DX =    0.0001              !
 ! R4    R(1,6)                  1.8633         -DE/DX =    0.0                 !
 ! R5    R(3,4)                  0.9695         -DE/DX =    0.0                 !
 ! R6    R(6,7)                  1.3217         -DE/DX =    0.0                 !
 ! R7    R(6,8)                  1.323          -DE/DX =    0.0                 !
 ! R8    R(6,9)                  1.3285         -DE/DX =    0.0                 !
 ! A1    A(2,1,3)              107.1862         -DE/DX =    0.0001              !
 ! A2    A(2,1,5)              124.0397         -DE/DX =    0.0                 !
 ! A3    A(2,1,6)              107.388          -DE/DX =   -0.0001              !
 ! A4    A(3,1,5)              109.0363         -DE/DX =    0.0                 !
 ! A5    A(3,1,6)               99.1405         -DE/DX =    0.0                 !
 ! A6    A(5,1,6)              107.2327         -DE/DX =    0.0                 !
 ! A7    A(1,3,4)              108.5806         -DE/DX =    0.0001              !
 ! A8    A(1,6,7)              109.9401         -DE/DX =   -0.0001              !
 ! A9    A(1,6,8)              108.5045         -DE/DX =    0.0                 !
 ! A10   A(1,6,9)              108.9941         -DE/DX =    0.0                 !
 ! A11   A(7,6,8)              109.969          -DE/DX =    0.0                 !
 ! A12   A(7,6,9)              109.6854         -DE/DX =    0.0                 !
 ! A13   A(8,6,9)              109.7248         -DE/DX =    0.0                 !
 ! D1    D(2,1,3,4)            153.0487         -DE/DX =    0.0                 !
 ! D2    D(5,1,3,4)             16.4515         -DE/DX =    0.0                 !
 ! D3    D(6,1,3,4)            -95.4455         -DE/DX =    0.0                 !
 ! D4    D(2,1,6,7)             50.2361         -DE/DX =    0.0                 !
 ! D5    D(2,1,6,8)            -70.0632         -DE/DX =    0.0                 !
 ! D6    D(2,1,6,9)            170.4911         -DE/DX =    0.0                 !
 ! D7    D(3,1,6,7)            -61.1097         -DE/DX =    0.0                 !
 ! D8    D(3,1,6,8)            178.591          -DE/DX =    0.0                 !
 ! D9    D(3,1,6,9)             59.1453         -DE/DX =    0.0                 !
 ! D10   D(5,1,6,7)           -174.4253         -DE/DX =    0.0                 !
 ! D11   D(5,1,6,8)             65.2754         -DE/DX =    0.0                 !
 ! D12   D(5,1,6,9)            -54.1704         -DE/DX =    0.0                 !
 --------------------------------------------------------------------------------
 GradGradGradGradGradGradGradGradGradGradGradGradGradGradGradGradGradGrad

                          Input orientation:                          
 ---------------------------------------------------------------------
 Center     Atomic      Atomic             Coordinates (Angstroms)
 Number     Number       Type             X           Y           Z
 ---------------------------------------------------------------------
      1         16           0       -0.786096    0.570634   -0.000174
      2          8           0       -1.148116   -0.629103   -0.679917
      3          8           0       -1.178373    1.793036   -0.956646
      4          1           0       -1.352167    2.572234   -0.406592
      5          8           0       -1.180028    0.882329    1.342250
      6          6           0        1.069815    0.716927   -0.078927
      7          9           0        1.482113    0.557069   -1.324444
      8          9           0        1.597835   -0.216986    0.695161
      9          9           0        1.427864    1.918568    0.360267
 ---------------------------------------------------------------------
                    Distance matrix (angstroms):
                    1          2          3          4          5
     1  S    0.000000
     2  O    1.425650   0.000000
     3  O    1.600933   2.438084   0.000000
     4  H    2.119437   3.219456   0.969491   0.000000
     5  O    1.433331   2.524798   2.472714   2.438003   0.000000
     6  C    1.863332   2.663119   2.642490   3.068473   2.666251
     7  F    2.626527   2.956437   2.956531   3.596732   3.782069
     8  F    2.605180   3.098537   3.804732   4.206675   3.056754
     9  F    2.616957   3.769388   2.922754   2.957013   2.973077
                    6          7          8          9
     6  C    0.000000
     7  F    1.321688   0.000000
     8  F    1.322955   2.165954   0.000000
     9  F    1.328545   2.166766   2.168325   0.000000
 Stoichiometry    CHF3O3S
 Framework group  C1[X(CHF3O3S)]
 Deg. of freedom    21
 Full point group                 C1      NOp   1
 Largest Abelian subgroup         C1      NOp   1
 Largest concise Abelian subgroup C1      NOp   1
                         Standard orientation:                         
 ---------------------------------------------------------------------
 Center     Atomic      Atomic             Coordinates (Angstroms)
 Number     Number       Type             X           Y           Z
 ---------------------------------------------------------------------
      1         16           0       -0.853543   -0.141689    0.078472
      2          8           0       -1.213306   -1.353511   -0.580722
      3          8           0       -1.247617    1.063478   -0.898905
      4          1           0       -1.422910    1.851683   -0.362326
      5          8           0       -1.248416    0.192277    1.415251
      6          6           0        1.002139    0.006413   -0.002264
      7          9           0        1.415088   -0.174047   -1.244748
      8          9           0        1.531519   -0.913198    0.787851
      9          9           0        1.358001    1.216013    0.416381
 ---------------------------------------------------------------------
 Rotational constants (GHZ):      2.6359758      1.5639236      1.5548019

 **********************************************************************

            Population analysis using the SCF density.

 **********************************************************************

 Orbital symmetries:
       Occupied  (A) (A) (A) (A) (A) (A) (A) (A) (A) (A) (A) (A)
                 (A) (A) (A) (A) (A) (A) (A) (A) (A) (A) (A) (A)
                 (A) (A) (A) (A) (A) (A) (A) (A) (A) (A) (A) (A)
                 (A)
       Virtual   (A) (A) (A) (A) (A) (A) (A) (A) (A) (A) (A) (A)
                 (A) (A) (A) (A) (A) (A) (A) (A) (A) (A) (A) (A)
                 (A) (A) (A) (A) (A) (A) (A) (A) (A) (A) (A) (A)
                 (A) (A) (A) (A) (A) (A) (A) (A) (A) (A) (A) (A)
                 (A) (A) (A) (A) (A) (A) (A) (A) (A) (A) (A) (A)
                 (A) (A) (A) (A) (A) (A) (A) (A) (A) (A) (A) (A)
                 (A) (A) (A) (A) (A) (A) (A) (A) (A) (A) (A) (A)
                 (A) (A) (A) (A) (A) (A) (A) (A) (A) (A) (A) (A)
                 (A) (A) (A) (A) (A) (A) (A) (A) (A) (A) (A) (A)
                 (A) (A) (A) (A) (A) (A) (A) (A) (A) (A) (A) (A)
                 (A) (A) (A) (A) (A) (A) (A) (A) (A) (A) (A) (A)
                 (A) (A) (A) (A) (A) (A) (A) (A) (A) (A) (A) (A)
                 (A) (A) (A) (A) (A) (A) (A) (A) (A) (A) (A) (A)
                 (A) (A) (A) (A) (A) (A) (A) (A) (A) (A) (A) (A)
                 (A) (A) (A) (A) (A) (A) (A) (A) (A) (A) (A) (A)
                 (A) (A) (A) (A) (A) (A) (A) (A) (A) (A) (A) (A)
                 (A) (A) (A) (A)
 The electronic state is 1-A.
 Alpha  occ. eigenvalues --  -89.13610 -24.76543 -24.76393 -24.76380 -19.23351
 Alpha  occ. eigenvalues --  -19.17659 -19.17439 -10.46953  -8.16014  -6.12665
 Alpha  occ. eigenvalues --   -6.12383  -6.12320  -1.35538  -1.26596  -1.26580
 Alpha  occ. eigenvalues --   -1.18376  -1.07823  -1.05211  -0.77232  -0.69426
 Alpha  occ. eigenvalues --   -0.63909  -0.62882  -0.62543  -0.55124  -0.51424
 Alpha  occ. eigenvalues --   -0.49969  -0.49514  -0.48750  -0.46838  -0.46617
 Alpha  occ. eigenvalues --   -0.46088  -0.44150  -0.40310  -0.38000  -0.36247
 Alpha  occ. eigenvalues --   -0.34570  -0.34118
 Alpha virt. eigenvalues --    0.01888   0.03504   0.06433   0.07072   0.08437
 Alpha virt. eigenvalues --    0.17295   0.18563   0.21268   0.25016   0.27573
 Alpha virt. eigenvalues --    0.29896   0.33171   0.38620   0.41197   0.41308
 Alpha virt. eigenvalues --    0.45990   0.48556   0.56232   0.57523   0.61569
 Alpha virt. eigenvalues --    0.62774   0.65137   0.67987   0.69493   0.77082
 Alpha virt. eigenvalues --    0.78817   0.81494   0.82064   0.82441   0.84402
 Alpha virt. eigenvalues --    0.86446   0.87247   0.88400   0.89951   0.91929
 Alpha virt. eigenvalues --    0.92189   0.94868   0.95205   0.95730   0.96229
 Alpha virt. eigenvalues --    0.97624   0.98658   0.99435   1.02883   1.03390
 Alpha virt. eigenvalues --    1.05166   1.08370   1.11068   1.11844   1.13290
 Alpha virt. eigenvalues --    1.14840   1.15962   1.17914   1.18895   1.22684
 Alpha virt. eigenvalues --    1.27666   1.32241   1.32327   1.34385   1.34594
 Alpha virt. eigenvalues --    1.36611   1.37724   1.41015   1.43667   1.46292
 Alpha virt. eigenvalues --    1.47966   1.59285   1.60339   1.65859   1.68031
 Alpha virt. eigenvalues --    1.71452   1.73719   1.78358   1.82007   1.85381
 Alpha virt. eigenvalues --    1.90532   1.98248   1.99246   1.99909   2.04346
 Alpha virt. eigenvalues --    2.06027   2.07593   2.08589   2.17897   2.20435
 Alpha virt. eigenvalues --    2.25884   2.27602   2.32481   2.45989   2.54153
 Alpha virt. eigenvalues --    2.58475   2.60237   2.64152   2.67167   2.81949
 Alpha virt. eigenvalues --    2.91088   2.94901   3.10301   3.17771   3.19825
 Alpha virt. eigenvalues --    3.20481   3.26323   3.30090   3.49764   3.77665
 Alpha virt. eigenvalues --    3.80499   3.81937   3.97288   4.04489   4.06350
 Alpha virt. eigenvalues --    4.08408   4.08944   4.09302   4.11473   4.13086
 Alpha virt. eigenvalues --    4.14023   4.14730   4.15867   4.16744   4.17930
 Alpha virt. eigenvalues --    4.18796   4.19825   4.20899   4.21834   4.22844
 Alpha virt. eigenvalues --    4.26297   4.30777   4.31520   4.31800   4.34452
 Alpha virt. eigenvalues --    4.35877   4.37404   4.52897   4.55577   4.55944
 Alpha virt. eigenvalues --    4.59540   4.62454   4.71283   4.72066   4.76467
 Alpha virt. eigenvalues --    4.78263   4.82434   4.83882   4.95494   4.99953
 Alpha virt. eigenvalues --    5.00085   5.00522   5.02069   5.08063   5.17995
 Alpha virt. eigenvalues --    5.19565   5.21420   5.28761   5.35100   5.38735
 Alpha virt. eigenvalues --    5.44838   5.53163   5.57474   5.68592   5.71039
 Alpha virt. eigenvalues --    5.77807   5.82183   5.87724   5.91682   5.93140
 Alpha virt. eigenvalues --    6.55634   6.56776   6.57097   6.57256   6.57541
 Alpha virt. eigenvalues --    6.58147   6.58528   6.60126   6.62310   6.62796
 Alpha virt. eigenvalues --    6.68133   6.75528   6.76689   6.86050   6.90056
 Alpha virt. eigenvalues --    7.11507   7.15605   7.16758   7.36167   7.36491
[...]
 Alpha virt. eigenvalues --    3.28612   3.29673   3.33211   3.34480   3.35890
 Alpha virt. eigenvalues --    3.38012   3.38720   3.40237   3.41132   3.41581
 Alpha virt. eigenvalues --    3.42397   3.45461   3.48002   3.49873   3.50697
 Alpha virt. eigenvalues --    3.52946   3.54144   3.55982   3.57607   3.61444
 Alpha virt. eigenvalues --    3.65360   3.65813   3.67709   3.69447   3.72978
 Alpha virt. eigenvalues --    3.74293   3.77953   3.78250   3.81765   3.84502
 Alpha virt. eigenvalues --    3.85605   3.87369   3.89051   3.93529   3.96449
 Alpha virt. eigenvalues --    3.98471   3.99066   4.01062   4.05882   4.07974
 Alpha virt. eigenvalues --    4.09203   4.11843   4.14615   4.16302   4.17324
 Alpha virt. eigenvalues --    4.19612   4.21545   4.22845   4.26009   4.26298
 Alpha virt. eigenvalues --    4.28111   4.30430   4.31129   4.32545   4.36879
 Alpha virt. eigenvalues --    4.37539   4.40176   4.44216   4.50326   4.52528
 Alpha virt. eigenvalues --    4.54505   4.57125   4.59172   4.61549   4.62522
 Alpha virt. eigenvalues --    4.65195   4.66048   4.67142   4.69580   4.72886
 Alpha virt. eigenvalues --    4.75972   4.77536   4.82627   4.88221   4.89301
 Alpha virt. eigenvalues --    4.89979   4.93588   4.95220   4.98153   4.99335
 Alpha virt. eigenvalues --    5.07982   5.12239   5.15593   5.19003   5.20283
 Alpha virt. eigenvalues --    5.23245   5.26701   5.30161   5.30849   5.32614
 Alpha virt. eigenvalues --    5.35967   5.39722   5.42345   5.49646   5.53261
 Alpha virt. eigenvalues --    5.56755   5.57559   5.62091   5.64640   5.67405
 Alpha virt. eigenvalues --    5.68532   5.69371   5.70075   5.74191   5.75143
 Alpha virt. eigenvalues --    5.76336   5.77034   5.81640   5.84739   5.86821
 Alpha virt. eigenvalues --    5.91288   5.94978   5.97341   5.98139   6.00208
 Alpha virt. eigenvalues --    6.03656   6.04891   6.06741   6.09080   6.09976
 Alpha virt. eigenvalues --    6.13057   6.14764   6.19946   6.21382   6.22321
 Alpha virt. eigenvalues --    6.24001   6.26340   6.28792   6.31776   6.34224
 Alpha virt. eigenvalues --    6.36149   6.38420   6.41360   6.44195   6.46804
 Alpha virt. eigenvalues --    6.49140   6.53695   6.55090   6.57633   6.60289
 Alpha virt. eigenvalues --    6.63518   6.64665   6.67218   6.71554   6.75166
 Alpha virt. eigenvalues --    6.76211   6.81364   6.90253   6.91794   6.98563
 Alpha virt. eigenvalues --    7.04004   7.16636   7.19939   7.22769   7.24462
 Alpha virt. eigenvalues --    7.26044   7.27368   7.28867   7.32196   7.33946
 Alpha virt. eigenvalues --    7.35565   7.37824   7.39705   7.43009   7.45926
 Alpha virt. eigenvalues --    7.47276   7.48304   7.50143   7.51112   7.53650
 Alpha virt. eigenvalues --    7.56686   7.57462   7.59264   7.59324   7.60540
 Alpha virt. eigenvalues --    7.62510   7.63594   7.67616   7.69536   7.73395
 Alpha virt. eigenvalues --    7.75039   7.79848   7.81007   7.83339   7.84649
 Alpha virt. eigenvalues --    7.88803   7.89386   7.90169   7.91773   7.94925
 Alpha virt. eigenvalues --    7.96799   7.99186   7.99660   8.02331   8.03469
 Alpha virt. eigenvalues --    8.05841   8.13432   8.15886   8.18832   8.20244
 Alpha virt. eigenvalues --    8.24764   8.25721   8.27798   8.29403   8.30427
 Alpha virt. eigenvalues --    8.33763   8.41579   8.44735   8.47397   8.51303
 Alpha virt. eigenvalues --    8.53072   8.55553   8.57548   8.59353   8.60159
 Alpha virt. eigenvalues --    8.66177   8.71152   8.74245   8.75566   8.84008
 Alpha virt. eigenvalues --    8.85575   8.87764   8.90479   8.94671   8.98371
 Alpha virt. eigenvalues --    9.02715   9.04272   9.07074   9.13489   9.29343
 Alpha virt. eigenvalues --    9.39317   9.39674   9.42174   9.46275   9.48749
 Alpha virt. eigenvalues --    9.51411   9.54270   9.56608   9.56903   9.61110
 Alpha virt. eigenvalues --    9.61594   9.62921   9.73590   9.77344   9.79568
 Alpha virt. eigenvalues --    9.83751   9.85543   9.88530   9.90751   9.92776
 Alpha virt. eigenvalues --    9.94850   9.96129   9.97924  10.04559  10.08937
 Alpha virt. eigenvalues --   10.09759  10.14073  10.15621  10.17044  10.21878
 Alpha virt. eigenvalues --   10.23427  10.26237  10.28295  10.29853  10.30465
 Alpha virt. eigenvalues --   10.31538  10.34823  10.48684  10.52248  10.53341
 Alpha virt. eigenvalues --   10.54448  10.60838  10.63226  10.64842  10.68543
 Alpha virt. eigenvalues --   10.70117  10.71060  10.75633  10.82956  10.84867
 Alpha virt. eigenvalues --   10.85810  10.86587  10.89181  10.98857  10.99250
 Alpha virt. eigenvalues --   11.00966  11.04512  11.06498  11.06920  11.10213
 Alpha virt. eigenvalues --   11.15078  11.17554  11.20500  11.22245  11.30565
 Alpha virt. eigenvalues --   11.41956  11.42679  11.47943  11.49087  11.64235
 Alpha virt. eigenvalues --   11.73797  11.74337  11.75064  12.08210  12.29945
 Alpha virt. eigenvalues --   12.31148  12.38897  12.41337  12.50306  12.91309
 Alpha virt. eigenvalues --   13.07970  13.08262  13.20928  13.29160  13.30417
 Alpha virt. eigenvalues --   13.35540  13.37379  13.39462  13.77916  14.18346
 Alpha virt. eigenvalues --   14.18904  14.22063  14.23548  14.24109  14.24135
 Alpha virt. eigenvalues --   14.24678  14.24694  14.25734  14.26133  14.31134
 Alpha virt. eigenvalues --   14.33658  14.34568  14.36632  14.43804  14.44556
 Alpha virt. eigenvalues --   14.47675  14.50840  14.55195  14.56691  14.59370
 Alpha virt. eigenvalues --   14.64234  14.69516  14.70961  14.83141  14.87193
 Alpha virt. eigenvalues --   14.93799  14.95979  14.97292  15.05551  15.08590
 Alpha virt. eigenvalues --   15.11719  15.32089  15.33363  15.35769  15.39099
 Alpha virt. eigenvalues --   15.56284  15.79474  15.91780  16.26615  16.33094
 Alpha virt. eigenvalues --   16.42888  16.45799  16.47095  17.25829  17.68281
 Alpha virt. eigenvalues --   17.81547  18.23099  18.25180  18.25910  18.25985
 Alpha virt. eigenvalues --   18.26977  18.27069  18.27886  18.27922  18.28123
 Alpha virt. eigenvalues --   18.28176  18.28260  18.28275  18.28303  18.28508
 Alpha virt. eigenvalues --   18.39284  18.39819  18.41112  18.41492  18.42056
 Alpha virt. eigenvalues --   18.49780  18.50065  18.52036  18.52745  18.56457
 Alpha virt. eigenvalues --   18.56908  18.58698  18.59311  18.62880  18.66411
 Alpha virt. eigenvalues --   18.68897  18.70182  18.74910  18.85004  18.86729
 Alpha virt. eigenvalues --   18.88139  18.88566  18.89917  18.92324  18.96972
 Alpha virt. eigenvalues --   18.98432  18.99616  19.00566  19.01722  19.03148
 Alpha virt. eigenvalues --   19.07020  19.07675  19.08801  19.09379  19.10503
 Alpha virt. eigenvalues --   19.12838  19.15820  19.17835  19.18908  19.20273
 Alpha virt. eigenvalues --   19.22207  19.24713  19.28469  19.33306  19.34488
 Alpha virt. eigenvalues --   19.35905  19.36967  19.38912  19.39752  19.42877
 Alpha virt. eigenvalues --   19.44995  19.47477  19.50909  19.54635  19.55852
 Alpha virt. eigenvalues --   19.60812  19.61349  19.66032  19.70371  19.76465
 Alpha virt. eigenvalues --   19.80265  19.82435  19.88822  19.92399  19.93731
 Alpha virt. eigenvalues --   19.95278  19.96164  19.98181  20.01380  20.02625
 Alpha virt. eigenvalues --   20.04144  20.40559  20.53931  21.27132  22.05618
 Alpha virt. eigenvalues --   22.09418  22.15338  22.20745  22.21542  22.22469
 Alpha virt. eigenvalues --   22.24234  22.31558  22.58550  22.61346  22.88497
 Alpha virt. eigenvalues --   23.04423  23.08600  23.15955  23.19361  23.49128
 Alpha virt. eigenvalues --   23.59628  23.69597  23.69743  23.69980  23.71145
 Alpha virt. eigenvalues --   23.71344  23.72735  23.73508  23.74701  23.84726
 Alpha virt. eigenvalues --   23.85250  23.93213  23.93673  23.94165  24.26460
 Alpha virt. eigenvalues --   24.33575  24.34200  24.46119  24.47393  24.47995
 Alpha virt. eigenvalues --   24.69730  24.71167  24.74285  24.74919  24.75241
 Alpha virt. eigenvalues --   24.76401  24.80436  24.81560  24.84697  25.31809
 Alpha virt. eigenvalues --   25.35215  25.36009  25.38802  25.38916  25.39943
 Alpha virt. eigenvalues --   25.61882  25.62642  25.69414  25.79231  25.79635
 Alpha virt. eigenvalues --   25.85690  26.04890  26.10566  26.11476  26.13805
 Alpha virt. eigenvalues --   26.23345  26.24558  26.62554  26.64526  26.65045
 Alpha virt. eigenvalues --   27.67216  28.29974  28.83377  28.85556  28.85997
 Alpha virt. eigenvalues --   28.88695  28.89931  28.91990  28.99699  29.70426
 Alpha virt. eigenvalues --   29.71464  29.76565  29.79400  29.79771  29.83423
 Alpha virt. eigenvalues --   29.84979  30.29480  30.30431  40.64312  62.73920
 Alpha virt. eigenvalues --   62.91222  62.96256  74.42795  79.81492  79.83593
 Alpha virt. eigenvalues --   80.56840
          Condensed to atoms (all electrons):
               1          2          3          4          5          6
     1  S   13.141675   0.630611   0.304968   0.000840   0.612572   0.391063
     2  O    0.630611   7.894786  -0.029573   0.002095  -0.035817  -0.021837
     3  O    0.304968  -0.029573   8.011629   0.292498  -0.032507  -0.003150
     4  H    0.000840   0.002095   0.292498   0.281324   0.001441  -0.002411
     5  O    0.612572  -0.035817  -0.032507   0.001441   7.950063  -0.014751
     6  C    0.391063  -0.021837  -0.003150  -0.002411  -0.014751   3.969221
     7  F   -0.031903   0.001059  -0.001858   0.000059  -0.000287   0.303290
     8  F   -0.024969   0.000895   0.000122  -0.000162   0.000583   0.298122
     9  F   -0.026560   0.001457   0.005086  -0.000529  -0.002495   0.276629
               7          8          9
     1  S   -0.031903  -0.024969  -0.026560
     2  O    0.001059   0.000895   0.001457
     3  O   -0.001858   0.000122   0.005086
     4  H    0.000059  -0.000162  -0.000529
     5  O   -0.000287   0.000583  -0.002495
     6  C    0.303290   0.298122   0.276629
     7  F    9.014637  -0.020208  -0.019535
     8  F   -0.020208   9.015888  -0.017551
     9  F   -0.019535  -0.017551   9.046205
 Mulliken charges:
               1
     1  S    1.001702
     2  O   -0.443676
     3  O   -0.547215
     4  H    0.424846
     5  O   -0.478803
     6  C    0.803825
     7  F   -0.245253
     8  F   -0.252720
     9  F   -0.262706
 Sum of Mulliken charges =   0.00000
 Mulliken charges with hydrogens summed into heavy atoms:
               1
     1  S    1.001702
     2  O   -0.443676
     3  O   -0.122369
     5  O   -0.478803
     6  C    0.803825
     7  F   -0.245253
     8  F   -0.252720
     9  F   -0.262706
 Electronic spatial extent (au):  <R**2>=            854.3397
 Charge=              0.0000 electrons
 Dipole moment (field-independent basis, Debye):
    X=              0.5598    Y=              2.8744    Z=             -0.3655  Tot=              2.9512
 Quadrupole moment (field-independent basis, Debye-Ang):
   XX=            -50.1631   YY=            -47.5062   ZZ=            -54.8923
   XY=             -4.9297   XZ=              0.7305   YZ=             -1.5743
 Traceless Quadrupole moment (field-independent basis, Debye-Ang):
   XX=              0.6908   YY=              3.3477   ZZ=             -4.0385
   XY=             -4.9297   XZ=              0.7305   YZ=             -1.5743
 Octapole moment (field-independent basis, Debye-Ang**2):
  XXX=             14.7542  YYY=             17.5596  ZZZ=             -3.9074  XYY=             -0.4436
  XXY=              7.7860  XXZ=             -1.5153  XZZ=             10.7644  YZZ=             -0.7649
  YYZ=              0.8657  XYZ=              2.0576
 Hexadecapole moment (field-independent basis, Debye-Ang**3):
 XXXX=           -452.8714 YYYY=           -195.2645 ZZZZ=           -220.2219 XXXY=            -11.9985
 XXXZ=              2.1560 YYYX=            -27.0415 YYYZ=             -6.0494 ZZZX=              6.3960
 ZZZY=             -0.5591 XXYY=           -107.2454 XXZZ=           -122.8133 YYZZ=            -73.4788
 XXYZ=             -2.7383 YYXZ=             -1.9074 ZZXY=              1.4733
 N-N= 5.685659866638D+02 E-N=-3.417149839582D+03  KE= 9.583006745451D+02
 1\1\GINC-BLADI2\SP\RHF\GFHFB2\C1H1F3O3S1\SARARIOP\23-Jun-2017\0\\#N Ge
 om=AllCheck Guess=TCheck SCRF=Check HF/GFHFB2 SCF=Tight\\Title Card Re
 quired\\0,1\S,0,-0.7860955852,0.5706344784,-0.0001737398\O,0,-1.148116
 3531,-0.6291027095,-0.679917032\O,0,-1.1783733678,1.7930361737,-0.9566
 464646\H,0,-1.3521671569,2.5722337271,-0.4065923111\O,0,-1.1800284634,
 0.8823290972,1.3422496152\C,0,1.0698149314,0.7169265762,-0.0789265877\
 F,0,1.4821126091,0.5570688265,-1.3244441696\F,0,1.5978352235,-0.216985
 5597,0.6951609137\F,0,1.4278643024,1.9185683301,0.360266776\\Version=A
 M64L-G09RevD.01\State=1-A\HF=-959.1452834\RMSD=6.427e-09\Dipole=0.2221
 592,1.1328042,-0.1244576\Quadrupole=0.5013225,2.5399533,-3.0412758,-3.
 6707679,0.4773202,-1.0754375\PG=C01 [X(C1H1F3O3S1)]\\@


 KNIGHT- SIRE, I'VE JUST RETURNED FROM THE FRONT
 KING-   HOW GOES THE BATTLE                    
 KNIGHT- THE SITUATION IS QUITE FLUID           
 KING-   WHAT DOES *THAT* MEAN                  
 KNIGHT- WE'RE UP THE CREEK                     
                THE WIZARD OF ID                
 Diagonal vibrational polarizability:
        0.0000000       0.0000000       0.0000000

 Temperature=              298.150000 Pressure=                      1.000000
 E(ZPE)=                     0.038535 E(Thermal)=                    0.046357
 E(CCSD(T))=              -960.130510 E(Empiric)=                   -0.173675
 DE(Plus)=                  -0.049846 DE(2DF)=                      -0.466119
 E(Delta-G3XP)=             -0.960113 DE(HF)=                       -0.078126
 G4(0 K)=                 -961.819854 G4 Energy=                  -961.812032
 G4 Enthalpy=             -961.811088 G4 Free Energy=             -961.852952
 1\1\GINC-BLADI2\Mixed\G4\G4\C1H1F3O3S1\SARARIOP\23-Jun-2017\0\\# g4 ge
 om=connectivity\\Title Card Required\\0,1\S,0,-0.7860955852,0.57063447
 84,-0.0001737398\O,0,-1.1481163531,-0.6291027095,-0.679917032\O,0,-1.1
 783733678,1.7930361737,-0.9566464646\H,0,-1.3521671569,2.5722337271,-0
 .4065923111\O,0,-1.1800284634,0.8823290972,1.3422496152\C,0,1.06981493
 14,0.7169265762,-0.0789265877\F,0,1.4821126091,0.5570688265,-1.3244441
 696\F,0,1.5978352235,-0.2169855597,0.6951609137\F,0,1.4278643024,1.918
 5683301,0.360266776\\Version=AM64L-G09RevD.01\State=1-A\MP2/GTBas1=-96
 0.086387\MP4/GTBas1=-960.1442081\CCSD(T)/G3Bas1=-960.1305095\MP2/GTBas
 2=-960.1312359\MP4/GTBas2=-960.1940544\MP2/GTBas3=-960.5235171\MP4/GTB
 as3=-960.610327\HF/GTLargeXP=-959.0727196\MP2/GTLargeXP=-961.5284789\H
 F/GFHFB1=-959.1224574\HF/GFHFB2=-959.1452834\G4=-961.8198535\FreqCoord
 =-1.4855053702,1.0783428861,-0.0003283207,-2.1696254761,-1.1888318305,
 -1.2848569836,-2.2268029475,3.3883473146,-1.807799824,-2.5552256124,4.
 860817294,-0.7683481158,-2.2299306249,1.6673603528,2.5364841746,2.0216
 572332,1.3547948865,-0.1491496353,2.8007869293,1.0527075193,-2.5028367
 588,3.0194709779,-0.4100432825,1.3136637451,2.6982724865,3.6255687111,
 0.6808055414\PG=C01 [X(C1H1F3O3S1)]\NImag=0\\0.53534230,0.06125239,0.8
 8561049,-0.05569392,0.29527681,0.99358604,-0.13794954,-0.14010903,-0.0
 7702642,0.09893765,-0.13434160,-0.49807260,-0.24329645,0.14318647,0.52
 498816,-0.07474268,-0.24549300,-0.22471616,0.07894235,0.25923140,0.207
 77827,-0.08149000,0.04090372,-0.02980743,0.01282666,-0.00287075,0.0012
 2108,0.07329938,0.04213319,-0.16804282,0.08086092,0.00917220,-0.028299
 10,0.01646379,-0.12572445,0.51556151,-0.02008015,0.04622506,-0.1433840
 1,0.00029865,-0.02010631,0.01286655,-0.01484498,0.13025037,0.33940594,
 -0.00319367,0.01058341,0.00116664,0.00182653,-0.00316564,0.00042715,-0
 .01916194,0.07283995,0.04169011,0.02316505,0.00820283,-0.03906723,-0.0
 1538288,0.00118764,-0.00135941,0.00427842,0.07395561,-0.32068655,-0.19
 424435,-0.08086448,0.35218562,-0.00825108,0.02372816,0.01587168,0.0000
 8877,0.00681444,-0.00137679,0.05172729,-0.23687416,-0.19135429,-0.0439
 7583,0.20872605,0.18309348,-0.14197768,0.03567912,0.15768365,0.0219754
 1,-0.00628973,-0.01010307,0.01726063,0.00270066,-0.00937642,-0.0019702
 1,-0.00223955,0.00143832,0.10255481,0.03503791,-0.11734824,-0.11560574
 ,0.00892674,0.00593474,-0.03066072,-0.00574036,0.00639675,0.03125733,-
 0.00099358,0.00721578,-0.00340990,-0.03441672,0.08933943,0.15071258,-0
 .11782204,-0.57874477,0.00984380,0.00511014,-0.00088240,0.00596180,0.0
 0101048,-0.02116467,0.00223294,-0.00376918,-0.00385270,-0.16416823,0.1
 1914451,0.60944384,-0.16952943,-0.00583583,0.00237775,0.01937895,0.018
 08776,0.01072517,0.01132457,-0.01660402,0.01013008,0.00049159,0.002991
 42,0.00063024,0.01897312,-0.00524117,-0.01902798,0.48992582,-0.0153651
 9,-0.02208001,-0.00119025,-0.01793161,-0.01078775,-0.00617768,0.016674
 20,-0.01553470,0.00921803,0.00577554,0.00168535,0.00191805,0.00516999,
 0.00057095,-0.00528772,-0.00889747,0.54313537,0.00879903,-0.00076737,-
 0.02291346,-0.01046045,-0.00915823,-0.00199944,-0.01317958,0.01060460,
 -0.00309265,-0.00075287,0.00045905,-0.00130158,0.02082095,-0.00257106,
 -0.01454261,-0.00205731,-0.00129606,0.55476524,0.00008591,0.00418177,0
 .03656513,-0.00220921,-0.00283505,-0.00461423,-0.00219299,0.00362890,-
 0.00492655,0.00001123,-0.00132930,0.00037520,-0.01155820,0.00073666,0.
 00507930,-0.11966146,0.01010712,0.09305741,0.09819062,-0.00071960,0.00
 113492,-0.00204730,0.00075387,0.00219775,0.00175357,-0.00036124,0.0014
 2051,-0.00079720,-0.00045040,0.00001789,-0.00017020,0.00032624,0.00080
 547,0.00048051,0.01028668,-0.07599263,-0.02452011,-0.01466770,0.085093
 20,-0.00038920,-0.00450199,-0.02939987,0.00169147,0.00415934,0.0067786
 5,0.00265425,-0.00380639,0.00586239,-0.00049959,0.00048432,-0.00015250
 ,0.00770483,0.00027949,-0.00013264,0.08650893,-0.02339243,-0.26959784,
 -0.10361456,0.04120980,0.39417913,-0.00152011,0.02820197,-0.02297661,-
 0.00356206,-0.00662522,0.00017553,-0.01000476,0.00648935,-0.00248299,-
 0.00089594,-0.00137264,-0.00124562,-0.00276897,-0.00180074,0.00580976,
 -0.14008185,0.08308576,-0.06880516,0.01974972,-0.00584539,0.00105508,0
 .12045192,0.00180751,-0.01234503,0.01227229,0.00310263,0.00618542,0.00
 065857,0.00380423,-0.00021183,-0.00018066,-0.00040459,0.00026521,0.000
 35083,0.00117760,0.00152293,-0.00366987,0.07628036,-0.17861059,0.08812
 055,-0.00024013,0.00524500,0.02737603,-0.10243365,0.25451919,-0.001222
 93,0.01289348,-0.00822480,-0.00100225,-0.00273759,0.00072986,-0.003411
 31,0.00077365,0.00028973,0.00002871,-0.00041002,-0.00039750,-0.0026523
 4,-0.00084010,0.00589725,-0.06382964,0.08801862,-0.14669011,-0.0147159
 2,0.03891142,-0.06706963,0.08359225,-0.14602751,0.19992355,0.00023223,
 -0.03485751,-0.01228879,-0.01122440,-0.00514624,-0.00203131,-0.0018615
 4,0.00536423,-0.00040775,-0.00027264,-0.00053152,-0.00078730,-0.002488
 91,0.00349127,0.00355602,-0.11082130,-0.07861834,-0.02742201,0.0175843
 9,0.01067754,0.00488880,0.01863205,0.01690606,0.00321343,0.09022012,0.
 00199258,-0.02978947,-0.01088741,-0.00828889,-0.00078720,-0.00005436,-
 0.00064097,0.00939623,-0.00162227,-0.00332020,-0.00025667,-0.00108327,
 -0.00210761,0.00556218,0.00480315,-0.07106772,-0.24238600,-0.06087136,
 0.00041773,-0.01992210,-0.04180816,0.00030056,-0.07657031,0.00941805,0
 .08271452,0.35475335,0.00086834,-0.00953912,-0.00207465,-0.00237592,-0
 .00001675,0.00082146,-0.00032113,0.00071673,0.00057101,-0.00031727,-0.
 00014141,-0.00052981,-0.00134768,0.00240619,0.00397871,-0.02545724,-0.
 06181056,-0.09462755,-0.00720577,-0.05482049,-0.04046770,0.00487777,0.
 02109977,0.01554165,0.03127891,0.10210563,0.11678687\\-0.00002278,-0.0
 0016178,0.00013288,-0.00000704,0.00022449,0.00005806,-0.00004412,-0.00
 000784,-0.00006317,0.00003434,-0.00001958,0.00001401,0.00000927,-0.000
 02778,-0.00013927,-0.00003128,-0.00000526,-0.00006148,0.00002437,0.000
 00676,0.00003180,0.00001577,-0.00002522,0.00001295,0.00002147,0.000016
 22,0.00001421\\\@
 Job cpu time:       0 days  9 hours 17 minutes  2.3 seconds.
 File lengths (MBytes):  RWF=  26709 Int=      0 D2E=      0 Chk=     33 Scr=      1
 Normal termination of Gaussian 09 at Fri Jun 23 19:29:13 2017.
