 Entering Gaussian System, Link 0=g09
 Initial command:
 /usr/local/gaussian/gaussian09.d1/g09/l1.exe "/scratch/sarariop/FHSO3g4.com/Gau-27320.inp" -scrdir="/scratch/sarariop/FHSO3g4.com/"
 Entering Link 1 = /usr/local/gaussian/gaussian09.d1/g09/l1.exe PID=     27321.
  
 Copyright (c) 1988,1990,1992,1993,1995,1998,2003,2009,2013,
            Gaussian, Inc.  All Rights Reserved.
  
 This is part of the Gaussian(R) 09 program.  It is based on
 the Gaussian(R) 03 system (copyright 2003, Gaussian, Inc.),
 the Gaussian(R) 98 system (copyright 1998, Gaussian, Inc.),
 the Gaussian(R) 94 system (copyright 1995, Gaussian, Inc.),
 the Gaussian 92(TM) system (copyright 1992, Gaussian, Inc.),
 the Gaussian 90(TM) system (copyright 1990, Gaussian, Inc.),
 the Gaussian 88(TM) system (copyright 1988, Gaussian, Inc.),
 the Gaussian 86(TM) system (copyright 1986, Carnegie Mellon
 University), and the Gaussian 82(TM) system (copyright 1983,
 Carnegie Mellon University). Gaussian is a federally registered
 trademark of Gaussian, Inc.
  
 This software contains proprietary and confidential information,
 including trade secrets, belonging to Gaussian, Inc.
  
 This software is provided under written license and may be
 used, copied, transmitted, or stored only in accord with that
 written license.
  
 The following legend is applicable only to US Government
 contracts under FAR:
  
                    RESTRICTED RIGHTS LEGEND
  
 Use, reproduction and disclosure by the US Government is
 subject to restrictions as set forth in subparagraphs (a)
 and (c) of the Commercial Computer Software - Restricted
 Rights clause in FAR 52.227-19.
  
 Gaussian, Inc.
 340 Quinnipiac St., Bldg. 40, Wallingford CT 06492
  
  
 ---------------------------------------------------------------
 Warning -- This program may not be used in any manner that
 competes with the business of Gaussian, Inc. or will provide
 assistance to any competitor of Gaussian, Inc.  The licensee
 of this program is prohibited from giving any competitor of
 Gaussian, Inc. access to this program.  By using this program,
 the user acknowledges that Gaussian, Inc. is engaged in the
 business of creating and licensing software in the field of
 computational chemistry and represents and warrants to the
 licensee that it is not a competitor of Gaussian, Inc. and that
 it will not use this program in any manner prohibited above.
 ---------------------------------------------------------------
  

 Cite this work as:
 Gaussian 09, Revision D.01,
 M. J. Frisch, G. W. Trucks, H. B. Schlegel, G. E. Scuseria, 
 M. A. Robb, J. R. Cheeseman, G. Scalmani, V. Barone, B. Mennucci, 
 G. A. Petersson, H. Nakatsuji, M. Caricato, X. Li, H. P. Hratchian, 
 A. F. Izmaylov, J. Bloino, G. Zheng, J. L. Sonnenberg, M. Hada, 
 M. Ehara, K. Toyota, R. Fukuda, J. Hasegawa, M. Ishida, T. Nakajima, 
 Y. Honda, O. Kitao, H. Nakai, T. Vreven, J. A. Montgomery, Jr., 
 J. E. Peralta, F. Ogliaro, M. Bearpark, J. J. Heyd, E. Brothers, 
 K. N. Kudin, V. N. Staroverov, T. Keith, R. Kobayashi, J. Normand, 
 K. Raghavachari, A. Rendell, J. C. Burant, S. S. Iyengar, J. Tomasi, 
 M. Cossi, N. Rega, J. M. Millam, M. Klene, J. E. Knox, J. B. Cross, 
 V. Bakken, C. Adamo, J. Jaramillo, R. Gomperts, R. E. Stratmann, 
 O. Yazyev, A. J. Austin, R. Cammi, C. Pomelli, J. W. Ochterski, 
 R. L. Martin, K. Morokuma, V. G. Zakrzewski, G. A. Voth, 
 P. Salvador, J. J. Dannenberg, S. Dapprich, A. D. Daniels, 
 O. Farkas, J. B. Foresman, J. V. Ortiz, J. Cioslowski, 
 and D. J. Fox, Gaussian, Inc., Wallingford CT, 2013.
 
 ******************************************
 Gaussian 09:  AM64L-G09RevD.01 24-Apr-2013
                22-Jun-2017 
 ******************************************
 %chk=FHSO3g4.chk
 ----------------------
 # g4 geom=connectivity
 ----------------------
 1/14=-1,18=20,19=15,26=3,38=1,57=2/1,3;
 2/9=110,12=2,17=6,18=5,40=1/2;
 3/5=35,7=104,11=2,16=1,25=1,30=1,71=1,74=-5/1,2,3;
 4//1;
 5/5=2,38=5/2;
 6/7=2,8=2,9=2,10=2,28=1/1;
 7//1,2,3,16;
 1/14=-1,18=20,19=15,26=3/3(2);
 2/9=110/2;
 99//99;
 2/9=110/2;
 3/5=35,7=104,11=2,16=1,25=1,30=1,71=1,74=-5/1,2,3;
 4/5=5,16=3,69=1/1;
 5/5=2,38=5/2;
 7//1,2,3,16;
 1/14=-1,18=20,19=15,26=3/3(-5);
 2/9=110/2;
 6/7=2,8=2,9=2,10=2,19=2,28=1/1;
 99/9=1/99;
 -------------------
 Title Card Required
 -------------------
 Symbolic Z-matrix:
 Charge =  0 Multiplicity = 1
 S                    -0.27378   0.50432   0. 
 O                     0.70883  -0.52631   0.09499 
 O                    -1.63464  -0.17909  -0.50205 
 H                    -2.37209   0.4401   -0.3839 
 O                    -0.55781   1.46995   1.02349 
 F                     0.06504   1.3517   -1.32775 
 

 GradGradGradGradGradGradGradGradGradGradGradGradGradGradGradGradGradGrad
 Berny optimization.
 Initialization pass.
                           ----------------------------
                           !    Initial Parameters    !
                           ! (Angstroms and Degrees)  !
 --------------------------                            --------------------------
 ! Name  Definition              Value          Derivative Info.                !
 --------------------------------------------------------------------------------
 ! R1    R(1,2)                  1.4271         estimate D2E/DX2                !
 ! R2    R(1,3)                  1.6035         estimate D2E/DX2                !
 ! R3    R(1,5)                  1.4355         estimate D2E/DX2                !
 ! R4    R(1,6)                  1.6111         estimate D2E/DX2                !
 ! R5    R(3,4)                  0.9701         estimate D2E/DX2                !
 ! A1    A(2,1,3)              107.3012         estimate D2E/DX2                !
 ! A2    A(2,1,5)              125.0689         estimate D2E/DX2                !
 ! A3    A(2,1,6)              106.8511         estimate D2E/DX2                !
 ! A4    A(3,1,5)              109.9994         estimate D2E/DX2                !
 ! A5    A(3,1,6)               98.3151         estimate D2E/DX2                !
 ! A6    A(5,1,6)              105.9853         estimate D2E/DX2                !
 ! A7    A(1,3,4)              109.5716         estimate D2E/DX2                !
 ! D1    D(2,1,3,4)            167.0047         estimate D2E/DX2                !
 ! D2    D(5,1,3,4)             28.0861         estimate D2E/DX2                !
 ! D3    D(6,1,3,4)            -82.3627         estimate D2E/DX2                !
 --------------------------------------------------------------------------------
 Trust Radius=3.00D-01 FncErr=1.00D-07 GrdErr=1.00D-06
 Number of steps in this run=     25 maximum allowed number of steps=    100.
 GradGradGradGradGradGradGradGradGradGradGradGradGradGradGradGradGradGrad

                          Input orientation:                          
 ---------------------------------------------------------------------
 Center     Atomic      Atomic             Coordinates (Angstroms)
 Number     Number       Type             X           Y           Z
 ---------------------------------------------------------------------
      1         16           0       -0.273775    0.504323    0.000000
      2          8           0        0.708832   -0.526311    0.094994
      3          8           0       -1.634643   -0.179085   -0.502047
      4          1           0       -2.372090    0.440100   -0.383896
      5          8           0       -0.557812    1.469954    1.023490
      6          9           0        0.065042    1.351701   -1.327745
 ---------------------------------------------------------------------
                    Distance matrix (angstroms):
                    1          2          3          4          5
     1  S    0.000000
     2  O    1.427146   0.000000
     3  O    1.603452   2.443133   0.000000
     4  H    2.134110   3.264256   0.970143   0.000000
     5  O    1.435497   2.539993   2.491216   2.516533   0.000000
     6  F    1.611134   2.442454   2.431874   2.767938   2.435208
                    6
     6  F    0.000000
 Stoichiometry    FHO3S
 Framework group  C1[X(FHO3S)]
 Deg. of freedom    12
 Full point group                 C1      NOp   1
 Largest Abelian subgroup         C1      NOp   1
 Largest concise Abelian subgroup C1      NOp   1
                         Standard orientation:                         
 ---------------------------------------------------------------------
 Center     Atomic      Atomic             Coordinates (Angstroms)
 Number     Number       Type             X           Y           Z
 ---------------------------------------------------------------------
      1         16           0        0.086947    0.031498   -0.148042
      2          8           0        1.069551    1.062135   -0.243036
      3          8           0       -1.273923    0.714902    0.354005
      4          1           0       -2.011368    0.095715    0.235854
      5          8           0       -0.197087   -0.934134   -1.171532
      6          9           0        0.425766   -0.815879    1.179703
 ---------------------------------------------------------------------
 Rotational constants (GHZ):      4.8770296      4.8153392      4.7464351
 Standard basis: GTBas3 (6D, 7F)
 There are   164 symmetry adapted cartesian basis functions of A   symmetry.
 There are   149 symmetry adapted basis functions of A   symmetry.
   149 basis functions,   251 primitive gaussians,   164 cartesian basis functions
    25 alpha electrons       25 beta electrons
       nuclear repulsion energy       284.9208590093 Hartrees.
 NAtoms=    6 NActive=    6 NUniq=    6 SFac= 1.00D+00 NAtFMM=   60 NAOKFM=F Big=F
 Integral buffers will be    131072 words long.
 Raffenetti 2 integral format.
 Two-electron integral symmetry is turned on.
 One-electron integrals computed using PRISM.
 NBasis=   149 RedAO= T EigKep=  1.52D-03  NBF=   149
 NBsUse=   149 1.00D-06 EigRej= -1.00D+00 NBFU=   149
 ExpMin= 1.17D-01 ExpMax= 2.19D+04 ExpMxC= 3.30D+03 IAcc=1 IRadAn=         1 AccDes= 0.00D+00
 Harris functional with IExCor=  402 and IRadAn=       1 diagonalized for initial guess.
 HarFok:  IExCor=  402 AccDes= 0.00D+00 IRadAn=         1 IDoV= 1 UseB2=F ITyADJ=14
 ICtDFT=  3500011 ScaDFX=  1.000000  1.000000  1.000000  1.000000
 FoFCou: FMM=F IPFlag=           0 FMFlag=      100000 FMFlg1=           0
         NFxFlg=           0 DoJE=T BraDBF=F KetDBF=T FulRan=T
         wScrn=  0.000000 ICntrl=     500 IOpCl=  0 I1Cent=   200000004 NGrid=           0
         NMat0=    1 NMatS0=      1 NMatT0=    0 NMatD0=    1 NMtDS0=    0 NMtDT0=    0
 Petite list used in FoFCou.
 Requested convergence on RMS density matrix=1.00D-08 within 128 cycles.
 Requested convergence on MAX density matrix=1.00D-06.
 Requested convergence on             energy=1.00D-06.
 No special actions if energy rises.
 Integral accuracy reduced to 1.0D-05 until final iterations.
 Initial convergence to 1.0D-05 achieved.  Increase integral accuracy.
 SCF Done:  E(RB3LYP) =  -724.294138273     A.U. after   14 cycles
            NFock= 14  Conv=0.59D-08     -V/T= 2.0046

 **********************************************************************

            Population analysis using the SCF density.

 **********************************************************************

 Orbital symmetries:
       Occupied  (A) (A) (A) (A) (A) (A) (A) (A) (A) (A) (A) (A)
                 (A) (A) (A) (A) (A) (A) (A) (A) (A) (A) (A) (A)
                 (A)
       Virtual   (A) (A) (A) (A) (A) (A) (A) (A) (A) (A) (A) (A)
                 (A) (A) (A) (A) (A) (A) (A) (A) (A) (A) (A) (A)
                 (A) (A) (A) (A) (A) (A) (A) (A) (A) (A) (A) (A)
                 (A) (A) (A) (A) (A) (A) (A) (A) (A) (A) (A) (A)
                 (A) (A) (A) (A) (A) (A) (A) (A) (A) (A) (A) (A)
                 (A) (A) (A) (A) (A) (A) (A) (A) (A) (A) (A) (A)
                 (A) (A) (A) (A) (A) (A) (A) (A) (A) (A) (A) (A)
                 (A) (A) (A) (A) (A) (A) (A) (A) (A) (A) (A) (A)
                 (A) (A) (A) (A) (A) (A) (A) (A) (A) (A) (A) (A)
                 (A) (A) (A) (A) (A) (A) (A) (A) (A) (A) (A) (A)
                 (A) (A) (A) (A)
 The electronic state is 1-A.
 Alpha  occ. eigenvalues --  -89.17990 -24.75008 -19.24257 -19.18740 -19.18688
 Alpha  occ. eigenvalues --   -8.19670  -6.16401  -6.16210  -6.15899  -1.27616
 Alpha  occ. eigenvalues --   -1.16309  -1.08563  -1.06190  -0.70819  -0.62161
 Alpha  occ. eigenvalues --   -0.54977  -0.53182  -0.49341  -0.46826  -0.45417
 Alpha  occ. eigenvalues --   -0.42478  -0.40123  -0.37692  -0.36029  -0.34809
 Alpha virt. eigenvalues --   -0.00306   0.03452   0.06486   0.08256   0.14101
 Alpha virt. eigenvalues --    0.22941   0.27077   0.28639   0.31649   0.39588
 Alpha virt. eigenvalues --    0.42825   0.55868   0.57509   0.65091   0.65903
 Alpha virt. eigenvalues --    0.72967   0.74994   0.77698   0.79724   0.81192
 Alpha virt. eigenvalues --    0.84285   0.87362   0.87453   0.89193   0.92991
 Alpha virt. eigenvalues --    0.94741   0.94779   0.97835   0.99496   1.00900
 Alpha virt. eigenvalues --    1.02729   1.09188   1.11311   1.11792   1.14414
 Alpha virt. eigenvalues --    1.16861   1.19482   1.21309   1.27814   1.29694
 Alpha virt. eigenvalues --    1.34093   1.37789   1.38482   1.40830   1.44517
 Alpha virt. eigenvalues --    1.47480   1.53663   1.68750   1.76826   1.86081
 Alpha virt. eigenvalues --    1.98602   2.01061   2.03119   2.07124   2.11830
 Alpha virt. eigenvalues --    2.18528   2.22310   2.23452   2.45873   2.53257
 Alpha virt. eigenvalues --    2.56389   2.60754   2.68786   2.72399   2.89686
 Alpha virt. eigenvalues --    2.93038   2.97691   3.80869   3.88783   4.01856
 Alpha virt. eigenvalues --    4.03635   4.05528   4.10389   4.10749   4.12464
 Alpha virt. eigenvalues --    4.13018   4.13823   4.14839   4.15054   4.17035
 Alpha virt. eigenvalues --    4.18997   4.22746   4.28058   4.29708   4.30520
 Alpha virt. eigenvalues --    4.35270   4.40180   4.55978   4.68285   4.93995
 Alpha virt. eigenvalues --    4.98996   4.99409   5.00058   5.01407   5.02644
 Alpha virt. eigenvalues --    5.11734   5.16835   5.20707   5.26511   5.34044
 Alpha virt. eigenvalues --    5.36286   5.46370   5.51646   5.58390   5.65260
 Alpha virt. eigenvalues --    5.69885   5.77578   5.80111   5.83610   5.91596
 Alpha virt. eigenvalues --    6.49080   6.55911   6.59053   6.61607   6.63428
 Alpha virt. eigenvalues --    6.70082   6.82203   6.89510   6.92759   6.96277
 Alpha virt. eigenvalues --    9.58846  12.82868  12.83940  12.98913
          Condensed to atoms (all electrons):
               1          2          3          4          5          6
     1  S   13.373402   0.682972   0.363497  -0.026482   0.673990   0.354627
     2  O    0.682972   7.627873  -0.031384   0.001787  -0.015405  -0.024878
     3  O    0.363497  -0.031384   7.734401   0.299583  -0.031362  -0.028337
     4  H   -0.026482   0.001787   0.299583   0.376048   0.002827  -0.000261
     5  O    0.673990  -0.015405  -0.031362   0.002827   7.668716  -0.027006
     6  F    0.354627  -0.024878  -0.028337  -0.000261  -0.027006   8.831224
 Mulliken charges:
               1
     1  S    0.577995
     2  O   -0.240965
     3  O   -0.306398
     4  H    0.346498
     5  O   -0.271760
     6  F   -0.105370
 Sum of Mulliken charges =   0.00000
 Mulliken charges with hydrogens summed into heavy atoms:
               1
     1  S    0.577995
     2  O   -0.240965
     3  O    0.040100
     5  O   -0.271760
     6  F   -0.105370
 Electronic spatial extent (au):  <R**2>=            358.6835
 Charge=              0.0000 electrons
 Dipole moment (field-independent basis, Debye):
    X=             -2.6321    Y=             -0.5087    Z=              0.8345  Tot=              2.8077
 Quadrupole moment (field-independent basis, Debye-Ang):
   XX=            -28.4467   YY=            -36.0410   ZZ=            -34.9443
   XY=             -0.4866   XZ=             -0.3889   YZ=             -1.2999
 Traceless Quadrupole moment (field-independent basis, Debye-Ang):
   XX=              4.6973   YY=             -2.8970   ZZ=             -1.8003
   XY=             -0.4866   XZ=             -0.3889   YZ=             -1.2999
 Octapole moment (field-independent basis, Debye-Ang**2):
  XXX=            -14.1994  YYY=             -3.7329  ZZZ=              6.3539  XYY=             -0.0328
  XXY=             -4.5189  XXZ=              2.9206  XZZ=              0.4715  YZZ=              1.2912
  YYZ=              2.8805  XYZ=              1.5265
 Hexadecapole moment (field-independent basis, Debye-Ang**3):
 XXXX=            -99.6852 YYYY=           -126.1381 ZZZZ=           -117.5647 XXXY=             -1.4287
 XXXZ=             -0.9875 YYYX=             -2.0147 YYYZ=             -4.7513 ZZZX=              1.5647
 ZZZY=             -5.7908 XXYY=            -45.1464 XXZZ=            -41.1959 YYZZ=            -41.3830
 XXYZ=             -1.4904 YYXZ=              0.9439 ZZXY=             -0.5542
 N-N= 2.849208590093D+02 E-N=-2.286305896437D+03  KE= 7.209974070888D+02
 Calling FoFJK, ICntrl=      2127 FMM=F ISym2X=0 I1Cent= 0 IOpClX= 0 NMat=1 NMatS=1 NMatT=0.
 ***** Axes restored to original set *****
 -------------------------------------------------------------------
 Center     Atomic                   Forces (Hartrees/Bohr)
 Number     Number              X              Y              Z
 -------------------------------------------------------------------
      1       16          -0.000756470    0.007369183   -0.008797512
      2        8          -0.010999495    0.010783295   -0.000971162
      3        8           0.011054063    0.003339390    0.002449392
      4        1           0.001464823    0.000864186    0.001229821
      5        8           0.003552238   -0.010870801   -0.011291277
      6        9          -0.004315159   -0.011485254    0.017380737
 -------------------------------------------------------------------
 Cartesian Forces:  Max     0.017380737 RMS     0.008250052

 GradGradGradGradGradGradGradGradGradGradGradGradGradGradGradGradGradGrad
 Berny optimization.
 FormGI is forming the generalized inverse of G from B-inverse, IUseBI=4.
 Internal  Forces:  Max     0.021271183 RMS     0.008754305
 Search for a local minimum.
 Step number   1 out of a maximum of   25
 All quantities printed in internal units (Hartrees-Bohrs-Radians)
 Mixed Optimization -- RFO/linear search
 Second derivative matrix not updated -- first step.
 The second derivative matrix:
                          R1        R2        R3        R4        R5
           R1           1.06913
           R2           0.00000   0.50556
           R3           0.00000   0.00000   1.02718
           R4           0.00000   0.00000   0.00000   0.49124
           R5           0.00000   0.00000   0.00000   0.00000   0.53348
           A1           0.00000   0.00000   0.00000   0.00000   0.00000
           A2           0.00000   0.00000   0.00000   0.00000   0.00000
           A3           0.00000   0.00000   0.00000   0.00000   0.00000
           A4           0.00000   0.00000   0.00000   0.00000   0.00000
           A5           0.00000   0.00000   0.00000   0.00000   0.00000
           A6           0.00000   0.00000   0.00000   0.00000   0.00000
           A7           0.00000   0.00000   0.00000   0.00000   0.00000
           D1           0.00000   0.00000   0.00000   0.00000   0.00000
           D2           0.00000   0.00000   0.00000   0.00000   0.00000
           D3           0.00000   0.00000   0.00000   0.00000   0.00000
                          A1        A2        A3        A4        A5
           A1           0.25000
           A2           0.00000   0.25000
           A3           0.00000   0.00000   0.25000
           A4           0.00000   0.00000   0.00000   0.25000
           A5           0.00000   0.00000   0.00000   0.00000   0.25000
           A6           0.00000   0.00000   0.00000   0.00000   0.00000
           A7           0.00000   0.00000   0.00000   0.00000   0.00000
           D1           0.00000   0.00000   0.00000   0.00000   0.00000
           D2           0.00000   0.00000   0.00000   0.00000   0.00000
           D3           0.00000   0.00000   0.00000   0.00000   0.00000
                          A6        A7        D1        D2        D3
           A6           0.25000
           A7           0.00000   0.16000
           D1           0.00000   0.00000   0.02573
           D2           0.00000   0.00000   0.00000   0.02573
           D3           0.00000   0.00000   0.00000   0.00000   0.02573
 ITU=  0
     Eigenvalues ---    0.02573   0.15607   0.16000   0.18317   0.25000
     Eigenvalues ---    0.25000   0.25000   0.49124   0.50556   0.53348
     Eigenvalues ---    1.02718   1.06913
 RFO step:  Lambda=-1.86200621D-03 EMin= 2.57327474D-02
 Linear search not attempted -- first point.
 Iteration  1 RMS(Cart)=  0.01910500 RMS(Int)=  0.00010454
 Iteration  2 RMS(Cart)=  0.00007632 RMS(Int)=  0.00000239
 Iteration  3 RMS(Cart)=  0.00000001 RMS(Int)=  0.00000239
 Variable       Old X    -DE/DX   Delta X   Delta X   Delta X     New X
                                 (Linear)    (Quad)   (Total)
    R1        2.69692  -0.01542   0.00000  -0.01440  -0.01440   2.68251
    R2        3.03009  -0.01357   0.00000  -0.02674  -0.02674   3.00335
    R3        2.71270  -0.01607   0.00000  -0.01561  -0.01561   2.69708
    R4        3.04460  -0.02127   0.00000  -0.04314  -0.04314   3.00146
    R5        1.83330  -0.00041   0.00000  -0.00077  -0.00077   1.83253
    A1        1.87276  -0.00135   0.00000  -0.00579  -0.00579   1.86697
    A2        2.18286  -0.00011   0.00000  -0.00098  -0.00098   2.18188
    A3        1.86490   0.00003   0.00000  -0.00010  -0.00010   1.86480
    A4        1.91985   0.00102   0.00000   0.00399   0.00399   1.92384
    A5        1.71592   0.00007   0.00000   0.00065   0.00065   1.71657
    A6        1.84979   0.00042   0.00000   0.00278   0.00277   1.85256
    A7        1.91239  -0.00361   0.00000  -0.02233  -0.02233   1.89006
    D1        2.91478  -0.00040   0.00000  -0.01288  -0.01288   2.90190
    D2        0.49019   0.00008   0.00000  -0.00980  -0.00979   0.48040
    D3       -1.43750  -0.00071   0.00000  -0.01431  -0.01432  -1.45182
         Item               Value     Threshold  Converged?
 Maximum Force            0.021271     0.000450     NO 
 RMS     Force            0.008754     0.000300     NO 
 Maximum Displacement     0.038295     0.001800     NO 
 RMS     Displacement     0.019125     0.001200     NO 
 Predicted change in Energy=-9.347786D-04
 GradGradGradGradGradGradGradGradGradGradGradGradGradGradGradGradGradGrad

                          Input orientation:                          
 ---------------------------------------------------------------------
 Center     Atomic      Atomic             Coordinates (Angstroms)
 Number     Number       Type             X           Y           Z
 ---------------------------------------------------------------------
      1         16           0       -0.279462    0.506387   -0.005288
      2          8           0        0.697247   -0.519132    0.091673
      3          8           0       -1.622990   -0.178560   -0.506952
      4          1           0       -2.351825    0.447020   -0.373415
      5          8           0       -0.564573    1.464655    1.013256
      6          9           0        0.057155    1.340310   -1.314478
 ---------------------------------------------------------------------
                    Distance matrix (angstroms):
                    1          2          3          4          5
     1  S    0.000000
     2  O    1.419525   0.000000
     3  O    1.589303   2.420298   0.000000
     4  H    2.105643   3.232121   0.969734   0.000000
     5  O    1.427235   2.525256   2.476173   2.480465   0.000000
     6  F    1.588307   2.417541   2.404569   2.736193   2.412540
                    6
     6  F    0.000000
 Stoichiometry    FHO3S
 Framework group  C1[X(FHO3S)]
 Deg. of freedom    12
 Full point group                 C1      NOp   1
 Largest Abelian subgroup         C1      NOp   1
 Largest concise Abelian subgroup C1      NOp   1
                         Standard orientation:                         
 ---------------------------------------------------------------------
 Center     Atomic      Atomic             Coordinates (Angstroms)
 Number     Number       Type             X           Y           Z
 ---------------------------------------------------------------------
      1         16           0        0.086128   -0.001920   -0.147020
      2          8           0        1.096969    0.954308   -0.427879
      3          8           0       -1.233646    0.809058    0.208500
      4          1           0       -1.983164    0.194035    0.189674
      5          8           0       -0.230875   -1.124146   -0.969891
      6          9           0        0.393948   -0.586342    1.297423
 ---------------------------------------------------------------------
 Rotational constants (GHZ):      4.9497470      4.9129567      4.8380711
 Standard basis: GTBas3 (6D, 7F)
 There are   164 symmetry adapted cartesian basis functions of A   symmetry.
 There are   149 symmetry adapted basis functions of A   symmetry.
   149 basis functions,   251 primitive gaussians,   164 cartesian basis functions
    25 alpha electrons       25 beta electrons
       nuclear repulsion energy       287.3943377473 Hartrees.
 NAtoms=    6 NActive=    6 NUniq=    6 SFac= 1.00D+00 NAtFMM=   60 NAOKFM=F Big=F
 Integral buffers will be    131072 words long.
 Raffenetti 2 integral format.
 Two-electron integral symmetry is turned on.
 One-electron integrals computed using PRISM.
 NBasis=   149 RedAO= T EigKep=  1.52D-03  NBF=   149
 NBsUse=   149 1.00D-06 EigRej= -1.00D+00 NBFU=   149
 Initial guess from the checkpoint file:  "FHSO3g4.chk"
 B after Tr=     0.000000    0.000000    0.000000
         Rot=    0.995397    0.094186    0.000763    0.017700 Ang=  11.00 deg.
 ExpMin= 1.17D-01 ExpMax= 2.19D+04 ExpMxC= 3.30D+03 IAcc=1 IRadAn=         1 AccDes= 0.00D+00
 Harris functional with IExCor=  402 and IRadAn=       1 diagonalized for initial guess.
 HarFok:  IExCor=  402 AccDes= 0.00D+00 IRadAn=         1 IDoV= 1 UseB2=F ITyADJ=14
 ICtDFT=  3500011 ScaDFX=  1.000000  1.000000  1.000000  1.000000
 FoFCou: FMM=F IPFlag=           0 FMFlag=      100000 FMFlg1=           0
         NFxFlg=           0 DoJE=T BraDBF=F KetDBF=T FulRan=T
         wScrn=  0.000000 ICntrl=     500 IOpCl=  0 I1Cent=   200000004 NGrid=           0
         NMat0=    1 NMatS0=      1 NMatT0=    0 NMatD0=    1 NMtDS0=    0 NMtDT0=    0
 Petite list used in FoFCou.
 Requested convergence on RMS density matrix=1.00D-08 within 128 cycles.
 Requested convergence on MAX density matrix=1.00D-06.
 Requested convergence on             energy=1.00D-06.
 No special actions if energy rises.
 Integral accuracy reduced to 1.0D-05 until final iterations.
 Initial convergence to 1.0D-05 achieved.  Increase integral accuracy.
 SCF Done:  E(RB3LYP) =  -724.295373471     A.U. after   11 cycles
            NFock= 11  Conv=0.97D-08     -V/T= 2.0044
 Calling FoFJK, ICntrl=      2127 FMM=F ISym2X=0 I1Cent= 0 IOpClX= 0 NMat=1 NMatS=1 NMatT=0.
 ***** Axes restored to original set *****
 -------------------------------------------------------------------
 Center     Atomic                   Forces (Hartrees/Bohr)
 Number     Number              X              Y              Z
 -------------------------------------------------------------------
      1       16           0.001605510    0.002342833   -0.006862162
      2        8          -0.002725059    0.003599288    0.000495990
      3        8           0.003027697    0.003077746    0.001437239
      4        1          -0.001014497   -0.000611836    0.000272910
      5        8           0.000888973   -0.003540436   -0.003616532
      6        9          -0.001782624   -0.004867595    0.008272556
 -------------------------------------------------------------------
 Cartesian Forces:  Max     0.008272556 RMS     0.003493458

 GradGradGradGradGradGradGradGradGradGradGradGradGradGradGradGradGradGrad
 Berny optimization.
 Using GEDIIS/GDIIS optimizer.
 FormGI is forming the generalized inverse of G from B-inverse, IUseBI=4.
 Internal  Forces:  Max     0.009748819 RMS     0.003283279
 Search for a local minimum.
 Step number   2 out of a maximum of   25
 All quantities printed in internal units (Hartrees-Bohrs-Radians)
 Mixed Optimization -- RFO/linear search
 Update second derivatives using D2CorX and points    1    2
 DE= -1.24D-03 DEPred=-9.35D-04 R= 1.32D+00
 TightC=F SS=  1.41D+00  RLast= 6.36D-02 DXNew= 5.0454D-01 1.9095D-01
 Trust test= 1.32D+00 RLast= 6.36D-02 DXMaxT set to 3.00D-01
 The second derivative matrix:
                          R1        R2        R3        R4        R5
           R1           1.03783
           R2          -0.02190   0.49155
           R3          -0.03695  -0.02688   0.98435
           R4          -0.07459  -0.05964  -0.08227   0.35548
           R5           0.00363   0.00359   0.00346   0.00269   0.53390
           A1           0.01318   0.01303   0.01259   0.00991   0.00152
           A2          -0.00850  -0.00783  -0.00856  -0.00958  -0.00053
           A3           0.00008   0.00008   0.00007   0.00001   0.00002
           A4          -0.00999  -0.00983  -0.00958  -0.00779  -0.00111
           A5           0.01058   0.00982   0.01061   0.01155   0.00071
           A6          -0.00079  -0.00108  -0.00053   0.00105  -0.00032
           A7           0.01782   0.01838   0.01642   0.00902   0.00267
           D1          -0.00732  -0.00669  -0.00742  -0.00858  -0.00041
           D2          -0.00443  -0.00402  -0.00450  -0.00533  -0.00023
           D3           0.00306   0.00304   0.00291   0.00221   0.00036
                          A1        A2        A3        A4        A5
           A1           0.25545
           A2          -0.00188   0.25040
           A3           0.00006  -0.00002   0.25000
           A4          -0.00399   0.00135  -0.00004   0.25292
           A5           0.00254  -0.00060   0.00003  -0.00183   0.25087
           A6          -0.00117   0.00053  -0.00001   0.00087  -0.00069
           A7           0.00960  -0.00365   0.00009  -0.00706   0.00485
           D1          -0.00145   0.00026  -0.00002   0.00104  -0.00041
           D2          -0.00081   0.00012  -0.00001   0.00058  -0.00020
           D3           0.00131  -0.00046   0.00001  -0.00096   0.00062
                          A6        A7        D1        D2        D3
           A6           0.25019
           A7          -0.00189   0.17646
           D1           0.00043  -0.00289   0.02589
           D2           0.00025  -0.00163   0.00007   0.02575
           D3          -0.00028   0.00230  -0.00036  -0.00020   0.02605
 ITU=  1  0
 Use linear search instead of GDIIS.
     Eigenvalues ---    0.02524   0.15527   0.17105   0.18482   0.24592
     Eigenvalues ---    0.25000   0.25117   0.32828   0.51482   0.53436
     Eigenvalues ---    0.98588   1.05848
 RFO step:  Lambda=-2.66653413D-04 EMin= 2.52431116D-02
 Quartic linear search produced a step of  0.50258.
 Iteration  1 RMS(Cart)=  0.01372429 RMS(Int)=  0.00013947
 Iteration  2 RMS(Cart)=  0.00013883 RMS(Int)=  0.00001729
 Iteration  3 RMS(Cart)=  0.00000001 RMS(Int)=  0.00001729
 Variable       Old X    -DE/DX   Delta X   Delta X   Delta X     New X
                                 (Linear)    (Quad)   (Total)
    R1        2.68251  -0.00445  -0.00724  -0.00109  -0.00832   2.67419
    R2        3.00335  -0.00330  -0.01344  -0.00027  -0.01371   2.98963
    R3        2.69708  -0.00513  -0.00785  -0.00190  -0.00975   2.68733
    R4        3.00146  -0.00975  -0.02168  -0.01445  -0.03613   2.96534
    R5        1.83253   0.00039  -0.00039   0.00137   0.00098   1.83351
    A1        1.86697   0.00151  -0.00291   0.01082   0.00790   1.87487
    A2        2.18188  -0.00085  -0.00049  -0.00595  -0.00644   2.17544
    A3        1.86480   0.00007  -0.00005   0.00249   0.00240   1.86720
    A4        1.92384  -0.00106   0.00200  -0.00852  -0.00652   1.91732
    A5        1.71657   0.00112   0.00033   0.00725   0.00756   1.72413
    A6        1.85256  -0.00033   0.00139  -0.00288  -0.00148   1.85108
    A7        1.89006   0.00178  -0.01122   0.02444   0.01322   1.90328
    D1        2.90190  -0.00092  -0.00647  -0.02283  -0.02934   2.87256
    D2        0.48040  -0.00018  -0.00492  -0.01689  -0.02182   0.45859
    D3       -1.45182  -0.00001  -0.00719  -0.01445  -0.02161  -1.47342
         Item               Value     Threshold  Converged?
 Maximum Force            0.009749     0.000450     NO 
 RMS     Force            0.003283     0.000300     NO 
 Maximum Displacement     0.023189     0.001800     NO 
 RMS     Displacement     0.013691     0.001200     NO 
 Predicted change in Energy=-2.824914D-04
 GradGradGradGradGradGradGradGradGradGradGradGradGradGradGradGradGradGrad

                          Input orientation:                          
 ---------------------------------------------------------------------
 Center     Atomic      Atomic             Coordinates (Angstroms)
 Number     Number       Type             X           Y           Z
 ---------------------------------------------------------------------
      1         16           0       -0.279114    0.506738   -0.014079
      2          8           0        0.695844   -0.513364    0.092754
      3          8           0       -1.620048   -0.169813   -0.511114
      4          1           0       -2.357833    0.442425   -0.362026
      5          8           0       -0.566578    1.459799    1.001468
      6          9           0        0.063282    1.334895   -1.302207
 ---------------------------------------------------------------------
                    Distance matrix (angstroms):
                    1          2          3          4          5
     1  S    0.000000
     2  O    1.415120   0.000000
     3  O    1.582046   2.417859   0.000000
     4  H    2.108620   3.231919   0.970252   0.000000
     5  O    1.422075   2.512538   2.460354   2.470377   0.000000
     6  F    1.569188   2.400440   2.392399   2.746315   2.391494
                    6
     6  F    0.000000
 Stoichiometry    FHO3S
 Framework group  C1[X(FHO3S)]
 Deg. of freedom    12
 Full point group                 C1      NOp   1
 Largest Abelian subgroup         C1      NOp   1
 Largest concise Abelian subgroup C1      NOp   1
                         Standard orientation:                         
 ---------------------------------------------------------------------
 Center     Atomic      Atomic             Coordinates (Angstroms)
 Number     Number       Type             X           Y           Z
 ---------------------------------------------------------------------
      1         16           0        0.085093    0.000538   -0.141366
      2          8           0        1.096422    0.949026   -0.424471
      3          8           0       -1.228749    0.803284    0.222351
      4          1           0       -1.988873    0.201649    0.181899
      5          8           0       -0.239975   -1.106937   -0.972103
      6          9           0        0.400645   -0.597028    1.274859
 ---------------------------------------------------------------------
 Rotational constants (GHZ):      5.0064949      4.9778177      4.8846045
 Standard basis: GTBas3 (6D, 7F)
 There are   164 symmetry adapted cartesian basis functions of A   symmetry.
 There are   149 symmetry adapted basis functions of A   symmetry.
   149 basis functions,   251 primitive gaussians,   164 cartesian basis functions
    25 alpha electrons       25 beta electrons
       nuclear repulsion energy       288.9895205031 Hartrees.
 NAtoms=    6 NActive=    6 NUniq=    6 SFac= 1.00D+00 NAtFMM=   60 NAOKFM=F Big=F
 Integral buffers will be    131072 words long.
 Raffenetti 2 integral format.
 Two-electron integral symmetry is turned on.
 One-electron integrals computed using PRISM.
 NBasis=   149 RedAO= T EigKep=  1.51D-03  NBF=   149
 NBsUse=   149 1.00D-06 EigRej= -1.00D+00 NBFU=   149
 Initial guess from the checkpoint file:  "FHSO3g4.chk"
 B after Tr=     0.000000    0.000000    0.000000
         Rot=    0.999982   -0.005050   -0.003057    0.001349 Ang=  -0.69 deg.
 ExpMin= 1.17D-01 ExpMax= 2.19D+04 ExpMxC= 3.30D+03 IAcc=1 IRadAn=         1 AccDes= 0.00D+00
 Harris functional with IExCor=  402 and IRadAn=       1 diagonalized for initial guess.
 HarFok:  IExCor=  402 AccDes= 0.00D+00 IRadAn=         1 IDoV= 1 UseB2=F ITyADJ=14
 ICtDFT=  3500011 ScaDFX=  1.000000  1.000000  1.000000  1.000000
 FoFCou: FMM=F IPFlag=           0 FMFlag=      100000 FMFlg1=           0
         NFxFlg=           0 DoJE=T BraDBF=F KetDBF=T FulRan=T
         wScrn=  0.000000 ICntrl=     500 IOpCl=  0 I1Cent=   200000004 NGrid=           0
         NMat0=    1 NMatS0=      1 NMatT0=    0 NMatD0=    1 NMtDS0=    0 NMtDT0=    0
 Petite list used in FoFCou.
 Requested convergence on RMS density matrix=1.00D-08 within 128 cycles.
 Requested convergence on MAX density matrix=1.00D-06.
 Requested convergence on             energy=1.00D-06.
 No special actions if energy rises.
 Integral accuracy reduced to 1.0D-05 until final iterations.
 Initial convergence to 1.0D-05 achieved.  Increase integral accuracy.
 SCF Done:  E(RB3LYP) =  -724.295627432     A.U. after   11 cycles
            NFock= 11  Conv=0.54D-08     -V/T= 2.0043
 Calling FoFJK, ICntrl=      2127 FMM=F ISym2X=0 I1Cent= 0 IOpClX= 0 NMat=1 NMatS=1 NMatT=0.
 ***** Axes restored to original set *****
 -------------------------------------------------------------------
 Center     Atomic                   Forces (Hartrees/Bohr)
 Number     Number              X              Y              Z
 -------------------------------------------------------------------
      1       16          -0.000309810    0.001043468   -0.000399326
      2        8           0.000876382   -0.001722252   -0.000131574
      3        8          -0.000697201   -0.000111386   -0.001121600
      4        1           0.000433751   -0.000568755    0.000450795
      5        8          -0.000498590    0.001589410    0.002113578
      6        9           0.000195468   -0.000230485   -0.000911873
 -------------------------------------------------------------------
 Cartesian Forces:  Max     0.002113578 RMS     0.000934879

 GradGradGradGradGradGradGradGradGradGradGradGradGradGradGradGradGradGrad
 Berny optimization.
 Using GEDIIS/GDIIS optimizer.
 FormGI is forming the generalized inverse of G from B-inverse, IUseBI=4.
 Internal  Forces:  Max     0.002681593 RMS     0.001042600
 Search for a local minimum.
 Step number   3 out of a maximum of   25
 All quantities printed in internal units (Hartrees-Bohrs-Radians)
 Mixed Optimization -- RFO/linear search
 Update second derivatives using D2CorX and points    1    2    3
 DE= -2.54D-04 DEPred=-2.82D-04 R= 8.99D-01
 TightC=F SS=  1.41D+00  RLast= 6.20D-02 DXNew= 5.0454D-01 1.8611D-01
 Trust test= 8.99D-01 RLast= 6.20D-02 DXMaxT set to 3.00D-01
 The second derivative matrix:
                          R1        R2        R3        R4        R5
           R1           1.06786
           R2          -0.00679   0.49713
           R3           0.00385  -0.00468   1.03838
           R4          -0.05149  -0.05399  -0.04590   0.35400
           R5          -0.00407  -0.00174  -0.00577  -0.00755   0.53481
           A1          -0.00387   0.00146  -0.00808  -0.01179   0.00371
           A2          -0.00558  -0.00648  -0.00450  -0.00797  -0.00135
           A3           0.00462   0.00379   0.00505   0.00797  -0.00012
           A4          -0.00486  -0.00671  -0.00306  -0.00263  -0.00203
           A5           0.00305   0.00526   0.00101   0.00374   0.00208
           A6           0.00944   0.00600   0.01177   0.01465  -0.00155
           A7           0.01506   0.01658   0.01303   0.00642   0.00306
           D1          -0.00159  -0.00273  -0.00053  -0.00100  -0.00109
           D2          -0.00461  -0.00431  -0.00460  -0.00614  -0.00032
           D3          -0.01372  -0.00959  -0.01641  -0.02354   0.00163
                          A1        A2        A3        A4        A5
           A1           0.26064
           A2          -0.00365   0.25062
           A3          -0.00046   0.00055   0.24964
           A4          -0.00604   0.00181   0.00042   0.25356
           A5           0.00562  -0.00132  -0.00061  -0.00285   0.25241
           A6          -0.00412   0.00164   0.00017   0.00211  -0.00252
           A7           0.01040  -0.00380  -0.00015  -0.00724   0.00525
           D1          -0.00311   0.00088   0.00009   0.00173  -0.00143
           D2          -0.00097   0.00008   0.00011   0.00057  -0.00021
           D3           0.00471  -0.00241   0.00050  -0.00282   0.00330
                          A6        A7        D1        D2        D3
           A6           0.25183
           A7          -0.00243   0.17626
           D1           0.00136  -0.00318   0.02641
           D2           0.00038  -0.00161   0.00013   0.02573
           D3          -0.00199   0.00318  -0.00133  -0.00052   0.02662
 ITU=  1  1  0
 Use linear search instead of GDIIS.
     Eigenvalues ---    0.02335   0.15423   0.16974   0.18820   0.24996
     Eigenvalues ---    0.25020   0.26925   0.33525   0.51568   0.53528
     Eigenvalues ---    1.04015   1.07386
 RFO step:  Lambda=-3.19845258D-05 EMin= 2.33480888D-02
 Quartic linear search produced a step of -0.11341.
 Iteration  1 RMS(Cart)=  0.00481394 RMS(Int)=  0.00002917
 Iteration  2 RMS(Cart)=  0.00002680 RMS(Int)=  0.00000187
 Iteration  3 RMS(Cart)=  0.00000000 RMS(Int)=  0.00000187
 Variable       Old X    -DE/DX   Delta X   Delta X   Delta X     New X
                                 (Linear)    (Quad)   (Total)
    R1        2.67419   0.00183   0.00094   0.00052   0.00146   2.67565
    R2        2.98963   0.00073   0.00156  -0.00037   0.00118   2.99082
    R3        2.68733   0.00268   0.00111   0.00115   0.00225   2.68958
    R4        2.96534   0.00067   0.00410  -0.00311   0.00098   2.96632
    R5        1.83351  -0.00064  -0.00011  -0.00094  -0.00105   1.83246
    A1        1.87487  -0.00133  -0.00090  -0.00409  -0.00499   1.86988
    A2        2.17544   0.00038   0.00073   0.00034   0.00107   2.17651
    A3        1.86720  -0.00007  -0.00027  -0.00070  -0.00098   1.86622
    A4        1.91732   0.00052   0.00074   0.00120   0.00194   1.91926
    A5        1.72413  -0.00067  -0.00086  -0.00127  -0.00213   1.72200
    A6        1.85108   0.00097   0.00017   0.00432   0.00449   1.85557
    A7        1.90328  -0.00010  -0.00150   0.00110  -0.00040   1.90288
    D1        2.87256  -0.00016   0.00333  -0.01512  -0.01179   2.86077
    D2        0.45859   0.00004   0.00247  -0.01298  -0.01051   0.44808
    D3       -1.47342  -0.00088   0.00245  -0.01755  -0.01510  -1.48852
         Item               Value     Threshold  Converged?
 Maximum Force            0.002682     0.000450     NO 
 RMS     Force            0.001043     0.000300     NO 
 Maximum Displacement     0.008214     0.001800     NO 
 RMS     Displacement     0.004822     0.001200     NO 
 Predicted change in Energy=-1.946879D-05
 GradGradGradGradGradGradGradGradGradGradGradGradGradGradGradGradGradGrad

                          Input orientation:                          
 ---------------------------------------------------------------------
 Center     Atomic      Atomic             Coordinates (Angstroms)
 Number     Number       Type             X           Y           Z
 ---------------------------------------------------------------------
      1         16           0       -0.278971    0.509520   -0.014043
      2          8           0        0.692584   -0.514937    0.092386
      3          8           0       -1.618438   -0.168340   -0.515229
      4          1           0       -2.358088    0.438626   -0.357679
      5          8           0       -0.567428    1.461651    1.003761
      6          9           0        0.065893    1.334161   -1.304400
 ---------------------------------------------------------------------
                    Distance matrix (angstroms):
                    1          2          3          4          5
     1  S    0.000000
     2  O    1.415895   0.000000
     3  O    1.582673   2.414570   0.000000
     4  H    2.108516   3.227761   0.969697   0.000000
     5  O    1.423266   2.514982   2.463498   2.471147   0.000000
     6  F    1.569709   2.400608   2.391082   2.752081   2.396864
                    6
     6  F    0.000000
 Stoichiometry    FHO3S
 Framework group  C1[X(FHO3S)]
 Deg. of freedom    12
 Full point group                 C1      NOp   1
 Largest Abelian subgroup         C1      NOp   1
 Largest concise Abelian subgroup C1      NOp   1
                         Standard orientation:                         
 ---------------------------------------------------------------------
 Center     Atomic      Atomic             Coordinates (Angstroms)
 Number     Number       Type             X           Y           Z
 ---------------------------------------------------------------------
      1         16           0        0.083659   -0.010173   -0.142186
      2          8           0        1.089522    0.922346   -0.493475
      3          8           0       -1.224467    0.817214    0.188103
      4          1           0       -1.987119    0.218346    0.182618
      5          8           0       -0.251253   -1.165738   -0.902575
      6          9           0        0.415351   -0.516239    1.306214
 ---------------------------------------------------------------------
 Rotational constants (GHZ):      4.9989372      4.9706856      4.8852275
 Standard basis: GTBas3 (6D, 7F)
 There are   164 symmetry adapted cartesian basis functions of A   symmetry.
 There are   149 symmetry adapted basis functions of A   symmetry.
   149 basis functions,   251 primitive gaussians,   164 cartesian basis functions
    25 alpha electrons       25 beta electrons
       nuclear repulsion energy       288.8509971027 Hartrees.
 NAtoms=    6 NActive=    6 NUniq=    6 SFac= 1.00D+00 NAtFMM=   60 NAOKFM=F Big=F
 Integral buffers will be    131072 words long.
 Raffenetti 2 integral format.
 Two-electron integral symmetry is turned on.
 One-electron integrals computed using PRISM.
 NBasis=   149 RedAO= T EigKep=  1.51D-03  NBF=   149
 NBsUse=   149 1.00D-06 EigRej= -1.00D+00 NBFU=   149
 Initial guess from the checkpoint file:  "FHSO3g4.chk"
 B after Tr=     0.000000    0.000000    0.000000
         Rot=    0.999515    0.030648   -0.005598    0.000102 Ang=   3.57 deg.
 Requested convergence on RMS density matrix=1.00D-08 within 128 cycles.
 Requested convergence on MAX density matrix=1.00D-06.
 Requested convergence on             energy=1.00D-06.
 No special actions if energy rises.
 SCF Done:  E(RB3LYP) =  -724.295637045     A.U. after    9 cycles
            NFock=  9  Conv=0.35D-08     -V/T= 2.0043
 Calling FoFJK, ICntrl=      2127 FMM=F ISym2X=0 I1Cent= 0 IOpClX= 0 NMat=1 NMatS=1 NMatT=0.
 ***** Axes restored to original set *****
 -------------------------------------------------------------------
 Center     Atomic                   Forces (Hartrees/Bohr)
 Number     Number              X              Y              Z
 -------------------------------------------------------------------
      1       16          -0.000186663   -0.000397138   -0.000280703
      2        8           0.000812268   -0.000518952    0.000166617
      3        8          -0.000576781    0.000308975   -0.000643789
      4        1          -0.000057584   -0.000253054    0.000390614
      5        8          -0.000120448    0.000760998    0.000450087
      6        9           0.000129209    0.000099171   -0.000082827
 -------------------------------------------------------------------
 Cartesian Forces:  Max     0.000812268 RMS     0.000416356

 GradGradGradGradGradGradGradGradGradGradGradGradGradGradGradGradGradGrad
 Berny optimization.
 Using GEDIIS/GDIIS optimizer.
 FormGI is forming the generalized inverse of G from B-inverse, IUseBI=4.
 Internal  Forces:  Max     0.000939577 RMS     0.000435732
 Search for a local minimum.
 Step number   4 out of a maximum of   25
 All quantities printed in internal units (Hartrees-Bohrs-Radians)
 Mixed Optimization -- En-DIIS/RFO-DIIS
 Update second derivatives using D2CorX and points    1    2    3    4
 DE= -9.61D-06 DEPred=-1.95D-05 R= 4.94D-01
 Trust test= 4.94D-01 RLast= 2.33D-02 DXMaxT set to 3.00D-01
 The second derivative matrix:
                          R1        R2        R3        R4        R5
           R1           1.02140
           R2          -0.02624   0.49346
           R3          -0.05663  -0.03785   0.97452
           R4          -0.05413  -0.05336  -0.05120   0.35383
           R5           0.00940   0.00836   0.00359  -0.00531   0.53546
           A1           0.01205   0.02632  -0.02203  -0.00637   0.01804
           A2          -0.00553  -0.01141   0.00541  -0.00933  -0.00662
           A3           0.01453   0.00453   0.02363   0.00892  -0.00638
           A4          -0.01471  -0.01499  -0.00802  -0.00525  -0.00345
           A5           0.01067   0.01504  -0.00166   0.00616   0.00672
           A6          -0.01249  -0.01362   0.00353   0.01062  -0.00616
           A7           0.01436   0.01927   0.00720   0.00893   0.00612
           D1           0.00798  -0.00055   0.01429  -0.00030  -0.00551
           D2           0.01729  -0.00306   0.03958  -0.00532  -0.01510
           D3          -0.00566   0.00204  -0.01972  -0.02211   0.00746
                          A1        A2        A3        A4        A5
           A1           0.33598
           A2          -0.02656   0.25708
           A3          -0.01742   0.00468   0.24832
           A4          -0.02073   0.00665   0.00654   0.25510
           A5           0.03226  -0.00952  -0.00751  -0.00759   0.26168
           A6          -0.04389   0.01503   0.01310   0.00772  -0.01594
           A7           0.02172  -0.00639  -0.00339  -0.00948   0.00916
           D1          -0.01207   0.00259  -0.00196   0.00590  -0.00536
           D2          -0.04529   0.01093   0.00037   0.01380  -0.01732
           D3           0.03445  -0.01184  -0.00491  -0.00992   0.01429
                          A6        A7        D1        D2        D3
           A6           0.26912
           A7          -0.00866   0.17787
           D1           0.00931  -0.00542   0.02444
           D2           0.03271  -0.00634  -0.00307   0.03211
           D3          -0.01743   0.01054  -0.00448  -0.01688   0.03677
 ITU=  0  1  1  0
 Use linear search instead of GDIIS.
     Eigenvalues ---    0.01248   0.15785   0.17097   0.19530   0.24928
     Eigenvalues ---    0.25080   0.32803   0.38988   0.51200   0.54945
     Eigenvalues ---    0.95139   1.06132
 RFO step:  Lambda=-1.34444831D-05 EMin= 1.24803191D-02
 Quartic linear search produced a step of -0.39411.
 Iteration  1 RMS(Cart)=  0.00614392 RMS(Int)=  0.00005962
 Iteration  2 RMS(Cart)=  0.00005082 RMS(Int)=  0.00000100
 Iteration  3 RMS(Cart)=  0.00000000 RMS(Int)=  0.00000100
 Variable       Old X    -DE/DX   Delta X   Delta X   Delta X     New X
                                 (Linear)    (Quad)   (Total)
    R1        2.67565   0.00094  -0.00058   0.00123   0.00065   2.67630
    R2        2.99082   0.00060  -0.00047   0.00171   0.00124   2.99206
    R3        2.68958   0.00086  -0.00089   0.00141   0.00052   2.69010
    R4        2.96632   0.00015  -0.00039   0.00268   0.00229   2.96861
    R5        1.83246  -0.00007   0.00041  -0.00022   0.00019   1.83265
    A1        1.86988   0.00060   0.00196   0.00084   0.00280   1.87268
    A2        2.17651  -0.00015  -0.00042   0.00037  -0.00006   2.17645
    A3        1.86622  -0.00020   0.00039  -0.00046  -0.00008   1.86615
    A4        1.91926  -0.00001  -0.00077   0.00040  -0.00037   1.91889
    A5        1.72200   0.00009   0.00084  -0.00048   0.00036   1.72236
    A6        1.85557  -0.00032  -0.00177  -0.00094  -0.00271   1.85285
    A7        1.90288   0.00013   0.00016  -0.00018  -0.00002   1.90286
    D1        2.86077  -0.00016   0.00465   0.01406   0.01871   2.87948
    D2        0.44808  -0.00048   0.00414   0.01247   0.01661   0.46469
    D3       -1.48852  -0.00017   0.00595   0.01361   0.01956  -1.46896
         Item               Value     Threshold  Converged?
 Maximum Force            0.000940     0.000450     NO 
 RMS     Force            0.000436     0.000300     NO 
 Maximum Displacement     0.014763     0.001800     NO 
 RMS     Displacement     0.006140     0.001200     NO 
 Predicted change in Energy=-1.855744D-05
 GradGradGradGradGradGradGradGradGradGradGradGradGradGradGradGradGradGrad

                          Input orientation:                          
 ---------------------------------------------------------------------
 Center     Atomic      Atomic             Coordinates (Angstroms)
 Number     Number       Type             X           Y           Z
 ---------------------------------------------------------------------
      1         16           0       -0.278999    0.507478   -0.012470
      2          8           0        0.696110   -0.514296    0.091813
      3          8           0       -1.620353   -0.170892   -0.509983
      4          1           0       -2.357401    0.442614   -0.365492
      5          8           0       -0.565467    1.461211    1.004781
      6          9           0        0.061662    1.334565   -1.303853
 ---------------------------------------------------------------------
                    Distance matrix (angstroms):
                    1          2          3          4          5
     1  S    0.000000
     2  O    1.416239   0.000000
     3  O    1.583330   2.417868   0.000000
     4  H    2.109166   3.232449   0.969797   0.000000
     5  O    1.423542   2.515495   2.463951   2.475119   0.000000
     6  F    1.570921   2.401811   2.392866   2.743714   2.395647
                    6
     6  F    0.000000
 Stoichiometry    FHO3S
 Framework group  C1[X(FHO3S)]
 Deg. of freedom    12
 Full point group                 C1      NOp   1
 Largest Abelian subgroup         C1      NOp   1
 Largest concise Abelian subgroup C1      NOp   1
                         Standard orientation:                         
 ---------------------------------------------------------------------
 Center     Atomic      Atomic             Coordinates (Angstroms)
 Number     Number       Type             X           Y           Z
 ---------------------------------------------------------------------
      1         16           0        0.085522   -0.006049   -0.141844
      2          8           0        1.099692    0.930577   -0.457951
      3          8           0       -1.227577    0.815084    0.187467
      4          1           0       -1.988254    0.213672    0.174003
      5          8           0       -0.239453   -1.145745   -0.930487
      6          9           0        0.395400   -0.546246    1.300362
 ---------------------------------------------------------------------
 Rotational constants (GHZ):      4.9942040      4.9681701      4.8806827
 Standard basis: GTBas3 (6D, 7F)
 There are   164 symmetry adapted cartesian basis functions of A   symmetry.
 There are   149 symmetry adapted basis functions of A   symmetry.
   149 basis functions,   251 primitive gaussians,   164 cartesian basis functions
    25 alpha electrons       25 beta electrons
       nuclear repulsion energy       288.7376973866 Hartrees.
 NAtoms=    6 NActive=    6 NUniq=    6 SFac= 1.00D+00 NAtFMM=   60 NAOKFM=F Big=F
 Integral buffers will be    131072 words long.
 Raffenetti 2 integral format.
 Two-electron integral symmetry is turned on.
 One-electron integrals computed using PRISM.
 NBasis=   149 RedAO= T EigKep=  1.51D-03  NBF=   149
 NBsUse=   149 1.00D-06 EigRej= -1.00D+00 NBFU=   149
 Initial guess from the checkpoint file:  "FHSO3g4.chk"
 B after Tr=     0.000000    0.000000    0.000000
         Rot=    0.999915   -0.010882    0.007071    0.000770 Ang=  -1.49 deg.
 Requested convergence on RMS density matrix=1.00D-08 within 128 cycles.
 Requested convergence on MAX density matrix=1.00D-06.
 Requested convergence on             energy=1.00D-06.
 No special actions if energy rises.
 SCF Done:  E(RB3LYP) =  -724.295624924     A.U. after    9 cycles
            NFock=  9  Conv=0.34D-08     -V/T= 2.0043
 Calling FoFJK, ICntrl=      2127 FMM=F ISym2X=0 I1Cent= 0 IOpClX= 0 NMat=1 NMatS=1 NMatT=0.
 ***** Axes restored to original set *****
 -------------------------------------------------------------------
 Center     Atomic                   Forces (Hartrees/Bohr)
 Number     Number              X              Y              Z
 -------------------------------------------------------------------
      1       16          -0.000005251    0.000725135   -0.000467046
      2        8          -0.000039252   -0.000433760    0.000058490
      3        8           0.000122177    0.000189742   -0.000684075
      4        1           0.000014788   -0.000303889    0.000530282
      5        8          -0.000086303    0.000250108    0.000412380
      6        9          -0.000006158   -0.000427336    0.000149970
 -------------------------------------------------------------------
 Cartesian Forces:  Max     0.000725135 RMS     0.000355508

 GradGradGradGradGradGradGradGradGradGradGradGradGradGradGradGradGradGrad
 Berny optimization.
 Using GEDIIS/GDIIS optimizer.
 FormGI is forming the generalized inverse of G from B-inverse, IUseBI=4.
 Internal  Forces:  Max     0.000630003 RMS     0.000319036
 Search for a local minimum.
 Step number   5 out of a maximum of   25
 All quantities printed in internal units (Hartrees-Bohrs-Radians)
 Mixed Optimization -- En-DIIS/RFO-DIIS
 Swapping is turned off.
 Update second derivatives using D2CorX and points    1    2    3    4    5
 DE=  1.21D-05 DEPred=-1.86D-05 R=-6.53D-01
 Trust test=-6.53D-01 RLast= 3.21D-02 DXMaxT set to 1.50D-01
 The second derivative matrix:
                          R1        R2        R3        R4        R5
           R1           1.01744
           R2          -0.00312   0.52105
           R3          -0.07903  -0.02277   0.93009
           R4           0.01934  -0.00186   0.02068   0.40322
           R5           0.01976   0.01037   0.01726  -0.01262   0.53282
           A1           0.06686   0.06487   0.03564   0.04366   0.01177
           A2          -0.01365  -0.01720  -0.00315  -0.01892  -0.00589
           A3           0.00186  -0.00857   0.01249  -0.01307  -0.00664
           A4          -0.02167  -0.01683  -0.01713  -0.00355  -0.00160
           A5           0.01331   0.01548   0.00173   0.00624   0.00653
           A6          -0.04262  -0.03281  -0.02884  -0.01084  -0.00202
           A7           0.00965   0.01771   0.00139   0.01195   0.00725
           D1           0.00952   0.00289   0.01435   0.00963  -0.00580
           D2          -0.01754  -0.02708   0.00262  -0.03546  -0.01163
           D3          -0.01089   0.00478  -0.02945  -0.00989   0.01157
                          A1        A2        A3        A4        A5
           A1           0.36066
           A2          -0.02876   0.25693
           A3          -0.03006   0.00633   0.25134
           A4          -0.01739   0.00583   0.00777   0.25335
           A5           0.02790  -0.00875  -0.00707  -0.00681   0.26191
           A6          -0.05511   0.01622   0.01982   0.00526  -0.01375
           A7           0.02163  -0.00575  -0.00462  -0.00928   0.00899
           D1          -0.00227   0.00150  -0.00532   0.00619  -0.00664
           D2          -0.05713   0.01201   0.00596   0.01225  -0.01537
           D3           0.04078  -0.01334  -0.00395  -0.01315   0.01672
                          A6        A7        D1        D2        D3
           A6           0.27391
           A7          -0.00820   0.17701
           D1           0.00426  -0.00788   0.02687
           D2           0.03862  -0.00737  -0.00920   0.03646
           D3          -0.02164   0.01219  -0.00632  -0.02078   0.03510
 ITU= -1  0  1  1  0
     Eigenvalues ---    0.00670   0.16479   0.17768   0.19551   0.25058
     Eigenvalues ---    0.25178   0.34133   0.43007   0.52847   0.57720
     Eigenvalues ---    0.89953   1.06943
 En-DIIS/RFO-DIIS IScMMF=        0 using points:     5    4
 RFO step:  Lambda=-6.56725979D-06.
 DidBck=T Rises=F RFO-DIIS coefs:   -0.69433    1.69433
 Iteration  1 RMS(Cart)=  0.01734652 RMS(Int)=  0.00052120
 Iteration  2 RMS(Cart)=  0.00044918 RMS(Int)=  0.00000127
 Iteration  3 RMS(Cart)=  0.00000026 RMS(Int)=  0.00000126
 Variable       Old X    -DE/DX   Delta X   Delta X   Delta X     New X
                                 (Linear)    (Quad)   (Total)
    R1        2.67630   0.00028  -0.00110   0.00082  -0.00028   2.67602
    R2        2.99206  -0.00001  -0.00210   0.00068  -0.00142   2.99064
    R3        2.69010   0.00049  -0.00088   0.00091   0.00003   2.69013
    R4        2.96861  -0.00035  -0.00388  -0.00146  -0.00534   2.96327
    R5        1.83265  -0.00014  -0.00032  -0.00049  -0.00081   1.83184
    A1        1.87268  -0.00063  -0.00475   0.00250  -0.00225   1.87043
    A2        2.17645   0.00011   0.00010  -0.00007   0.00003   2.17648
    A3        1.86615   0.00008   0.00013  -0.00185  -0.00172   1.86442
    A4        1.91889   0.00014   0.00063   0.00069   0.00132   1.92021
    A5        1.72236  -0.00012  -0.00061  -0.00054  -0.00115   1.72121
    A6        1.85285   0.00040   0.00459  -0.00108   0.00351   1.85637
    A7        1.90286   0.00002   0.00003   0.00045   0.00048   1.90334
    D1        2.87948  -0.00040  -0.03171  -0.02200  -0.05371   2.82577
    D2        0.46469  -0.00011  -0.02814  -0.02474  -0.05289   0.41180
    D3       -1.46896  -0.00054  -0.03314  -0.02352  -0.05666  -1.52562
         Item               Value     Threshold  Converged?
 Maximum Force            0.000630     0.000450     NO 
 RMS     Force            0.000319     0.000300     NO 
 Maximum Displacement     0.042624     0.001800     NO 
 RMS     Displacement     0.017349     0.001200     NO 
 Predicted change in Energy=-3.122778D-05
 GradGradGradGradGradGradGradGradGradGradGradGradGradGradGradGradGradGrad

                          Input orientation:                          
 ---------------------------------------------------------------------
 Center     Atomic      Atomic             Coordinates (Angstroms)
 Number     Number       Type             X           Y           Z
 ---------------------------------------------------------------------
      1         16           0       -0.279555    0.510928   -0.016490
      2          8           0        0.689845   -0.515451    0.093590
      3          8           0       -1.617655   -0.163055   -0.526187
      4          1           0       -2.361129    0.431367   -0.342936
      5          8           0       -0.570400    1.463507    1.000621
      6          9           0        0.074447    1.333384   -1.303803
 ---------------------------------------------------------------------
                    Distance matrix (angstroms):
                    1          2          3          4          5
     1  S    0.000000
     2  O    1.416089   0.000000
     3  O    1.582578   2.415131   0.000000
     4  H    2.108518   3.224199   0.969367   0.000000
     5  O    1.423556   2.515391   2.464465   2.465192   0.000000
     6  F    1.568096   2.397835   2.388979   2.769283   2.396482
                    6
     6  F    0.000000
 Stoichiometry    FHO3S
 Framework group  C1[X(FHO3S)]
 Deg. of freedom    12
 Full point group                 C1      NOp   1
 Largest Abelian subgroup         C1      NOp   1
 Largest concise Abelian subgroup C1      NOp   1
                         Standard orientation:                         
 ---------------------------------------------------------------------
 Center     Atomic      Atomic             Coordinates (Angstroms)
 Number     Number       Type             X           Y           Z
 ---------------------------------------------------------------------
      1         16           0        0.081141   -0.016003   -0.142428
      2          8           0        1.079114    0.904001   -0.546099
      3          8           0       -1.223985    0.820489    0.176133
      4          1           0       -1.989306    0.225548    0.174984
      5          8           0       -0.261261   -1.202665   -0.850316
      6          9           0        0.437790   -0.460456    1.318458
 ---------------------------------------------------------------------
 Rotational constants (GHZ):      5.0027434      4.9707893      4.8879008
 Standard basis: GTBas3 (6D, 7F)
 There are   164 symmetry adapted cartesian basis functions of A   symmetry.
 There are   149 symmetry adapted basis functions of A   symmetry.
   149 basis functions,   251 primitive gaussians,   164 cartesian basis functions
    25 alpha electrons       25 beta electrons
       nuclear repulsion energy       288.9076682083 Hartrees.
 NAtoms=    6 NActive=    6 NUniq=    6 SFac= 1.00D+00 NAtFMM=   60 NAOKFM=F Big=F
 Integral buffers will be    131072 words long.
 Raffenetti 2 integral format.
 Two-electron integral symmetry is turned on.
 One-electron integrals computed using PRISM.
 NBasis=   149 RedAO= T EigKep=  1.51D-03  NBF=   149
 NBsUse=   149 1.00D-06 EigRej= -1.00D+00 NBFU=   149
 Initial guess from the checkpoint file:  "FHSO3g4.chk"
 B after Tr=     0.000000    0.000000    0.000000
         Rot=    0.999406    0.031194   -0.014456   -0.002151 Ang=   3.95 deg.
 ExpMin= 1.17D-01 ExpMax= 2.19D+04 ExpMxC= 3.30D+03 IAcc=1 IRadAn=         1 AccDes= 0.00D+00
 Harris functional with IExCor=  402 and IRadAn=       1 diagonalized for initial guess.
 HarFok:  IExCor=  402 AccDes= 0.00D+00 IRadAn=         1 IDoV= 1 UseB2=F ITyADJ=14
 ICtDFT=  3500011 ScaDFX=  1.000000  1.000000  1.000000  1.000000
 FoFCou: FMM=F IPFlag=           0 FMFlag=      100000 FMFlg1=           0
         NFxFlg=           0 DoJE=T BraDBF=F KetDBF=T FulRan=T
         wScrn=  0.000000 ICntrl=     500 IOpCl=  0 I1Cent=   200000004 NGrid=           0
         NMat0=    1 NMatS0=      1 NMatT0=    0 NMatD0=    1 NMtDS0=    0 NMtDT0=    0
 Petite list used in FoFCou.
 Requested convergence on RMS density matrix=1.00D-08 within 128 cycles.
 Requested convergence on MAX density matrix=1.00D-06.
 Requested convergence on             energy=1.00D-06.
 No special actions if energy rises.
 Integral accuracy reduced to 1.0D-05 until final iterations.
 Initial convergence to 1.0D-05 achieved.  Increase integral accuracy.
 SCF Done:  E(RB3LYP) =  -724.295655729     A.U. after   10 cycles
            NFock= 10  Conv=0.65D-08     -V/T= 2.0043
 Calling FoFJK, ICntrl=      2127 FMM=F ISym2X=0 I1Cent= 0 IOpClX= 0 NMat=1 NMatS=1 NMatT=0.
 ***** Axes restored to original set *****
 -------------------------------------------------------------------
 Center     Atomic                   Forces (Hartrees/Bohr)
 Number     Number              X              Y              Z
 -------------------------------------------------------------------
      1       16           0.000243254   -0.000795548    0.000135621
      2        8           0.000698069   -0.000407974    0.000324337
      3        8          -0.000660218    0.000066813   -0.000313917
      4        1          -0.000149415    0.000061932    0.000271637
      5        8          -0.000315091    0.000458645    0.000264037
      6        9           0.000183400    0.000616131   -0.000681715
 -------------------------------------------------------------------
 Cartesian Forces:  Max     0.000795548 RMS     0.000432408

 GradGradGradGradGradGradGradGradGradGradGradGradGradGradGradGradGradGrad
 Berny optimization.
 Using GEDIIS/GDIIS optimizer.
 FormGI is forming the generalized inverse of G from B-inverse, IUseBI=4.
 Internal  Forces:  Max     0.000924388 RMS     0.000495459
 Search for a local minimum.
 Step number   6 out of a maximum of   25
 All quantities printed in internal units (Hartrees-Bohrs-Radians)
 Mixed Optimization -- En-DIIS/RFO-DIIS
 Swapping is turned off.
 Update second derivatives using D2CorX and points    1    2    3    4    5
                                                      6
 DE= -3.08D-05 DEPred=-3.12D-05 R= 9.86D-01
 TightC=F SS=  1.41D+00  RLast= 9.46D-02 DXNew= 2.5227D-01 2.8376D-01
 Trust test= 9.86D-01 RLast= 9.46D-02 DXMaxT set to 2.52D-01
 The second derivative matrix:
                          R1        R2        R3        R4        R5
           R1           1.00166
           R2          -0.02226   0.50026
           R3          -0.08638  -0.03845   0.93615
           R4          -0.01437  -0.03568  -0.01749   0.34841
           R5           0.01637   0.01088   0.00906  -0.00413   0.53760
           A1           0.02244   0.03531  -0.01687   0.02258   0.02117
           A2          -0.01275  -0.01452  -0.00267  -0.01494  -0.00540
           A3           0.00822  -0.00071   0.01560   0.00369  -0.00361
           A4          -0.00838  -0.01502   0.00559  -0.02119  -0.01159
           A5           0.01570   0.01818   0.00226   0.01480   0.00837
           A6          -0.01889  -0.01655  -0.00137   0.00213  -0.00638
           A7           0.01398   0.01754   0.01009   0.00619   0.00434
           D1           0.01327  -0.00120   0.02171  -0.00760  -0.01014
           D2          -0.00679  -0.01351   0.01130  -0.01225  -0.00963
           D3          -0.00332   0.01322  -0.02613   0.00764   0.01524
                          A1        A2        A3        A4        A5
           A1           0.35708
           A2          -0.02848   0.25489
           A3          -0.01993   0.00648   0.25233
           A4          -0.03099   0.00643   0.00081   0.27094
           A5           0.03348  -0.00715  -0.00633  -0.01166   0.26135
           A6          -0.05144   0.01647   0.01474   0.01080  -0.01680
           A7           0.01108  -0.00310  -0.00533  -0.00438   0.00652
           D1          -0.00554   0.00452  -0.00798   0.01045  -0.01031
           D2          -0.04868   0.00938   0.00548   0.00969  -0.01356
           D3           0.05475  -0.01235  -0.00299  -0.02256   0.01718
                          A6        A7        D1        D2        D3
           A6           0.27115
           A7          -0.00293   0.17906
           D1           0.00485  -0.00994   0.02276
           D2           0.03476  -0.00286  -0.00622   0.03139
           D3          -0.02900   0.01014  -0.01154  -0.02030   0.03591
 ITU=  1 -1  0  1  1  0
     Eigenvalues ---    0.00421   0.16908   0.17844   0.19897   0.25118
     Eigenvalues ---    0.26044   0.32334   0.42776   0.50771   0.55902
     Eigenvalues ---    0.88352   1.06413
 En-DIIS/RFO-DIIS IScMMF=        0 using points:     6    5    4
 RFO step:  Lambda=-5.99638609D-06.
 DidBck=F Rises=F RFO-DIIS coefs:    1.55161    0.20416   -0.75577
 Iteration  1 RMS(Cart)=  0.01057018 RMS(Int)=  0.00018190
 Iteration  2 RMS(Cart)=  0.00015615 RMS(Int)=  0.00000054
 Iteration  3 RMS(Cart)=  0.00000003 RMS(Int)=  0.00000054
 Variable       Old X    -DE/DX   Delta X   Delta X   Delta X     New X
                                 (Linear)    (Quad)   (Total)
    R1        2.67602   0.00080   0.00034   0.00075   0.00109   2.67711
    R2        2.99064   0.00065   0.00015   0.00124   0.00140   2.99204
    R3        2.69013   0.00056   0.00041   0.00072   0.00113   2.69126
    R4        2.96327   0.00092  -0.00121   0.00291   0.00170   2.96497
    R5        1.83184   0.00019  -0.00030   0.00028  -0.00002   1.83182
    A1        1.87043   0.00082   0.00088   0.00147   0.00234   1.87278
    A2        2.17648  -0.00009  -0.00003   0.00008   0.00005   2.17653
    A3        1.86442   0.00012  -0.00101   0.00157   0.00056   1.86498
    A4        1.92021  -0.00069   0.00045  -0.00368  -0.00323   1.91697
    A5        1.72121   0.00014  -0.00036  -0.00026  -0.00063   1.72059
    A6        1.85637  -0.00024  -0.00011   0.00092   0.00081   1.85718
    A7        1.90334  -0.00007   0.00025  -0.00195  -0.00170   1.90164
    D1        2.82577  -0.00027  -0.01548  -0.01705  -0.03253   2.79324
    D2        0.41180  -0.00027  -0.01662  -0.01526  -0.03188   0.37993
    D3       -1.52562   0.00014  -0.01647  -0.01505  -0.03152  -1.55714
         Item               Value     Threshold  Converged?
 Maximum Force            0.000924     0.000450     NO 
 RMS     Force            0.000495     0.000300     NO 
 Maximum Displacement     0.027532     0.001800     NO 
 RMS     Displacement     0.010559     0.001200     NO 
 Predicted change in Energy=-9.495704D-06
 GradGradGradGradGradGradGradGradGradGradGradGradGradGradGradGradGradGrad

                          Input orientation:                          
 ---------------------------------------------------------------------
 Center     Atomic      Atomic             Coordinates (Angstroms)
 Number     Number       Type             X           Y           Z
 ---------------------------------------------------------------------
      1         16           0       -0.279131    0.511309   -0.019300
      2          8           0        0.688804   -0.516662    0.096106
      3          8           0       -1.617847   -0.158225   -0.535498
      4          1           0       -2.362636    0.426614   -0.328367
      5          8           0       -0.575841    1.463523    0.997297
      6          9           0        0.082203    1.334121   -1.305443
 ---------------------------------------------------------------------
                    Distance matrix (angstroms):
                    1          2          3          4          5
     1  S    0.000000
     2  O    1.416665   0.000000
     3  O    1.583318   2.418272   0.000000
     4  H    2.108005   3.221991   0.969356   0.000000
     5  O    1.424154   2.516465   2.462783   2.454628   0.000000
     6  F    1.568996   2.399521   2.389578   2.784867   2.398411
                    6
     6  F    0.000000
 Stoichiometry    FHO3S
 Framework group  C1[X(FHO3S)]
 Deg. of freedom    12
 Full point group                 C1      NOp   1
 Largest Abelian subgroup         C1      NOp   1
 Largest concise Abelian subgroup C1      NOp   1
                         Standard orientation:                         
 ---------------------------------------------------------------------
 Center     Atomic      Atomic             Coordinates (Angstroms)
 Number     Number       Type             X           Y           Z
 ---------------------------------------------------------------------
      1         16           0        0.079151   -0.014379   -0.143498
      2          8           0        1.082117    0.899325   -0.551106
      3          8           0       -1.211571    0.830928    0.212014
      4          1           0       -1.986255    0.248833    0.185903
      5          8           0       -0.293141   -1.184648   -0.864667
      6          9           0        0.455622   -0.487067    1.304460
 ---------------------------------------------------------------------
 Rotational constants (GHZ):      5.0038368      4.9639167      4.8798790
 Standard basis: GTBas3 (6D, 7F)
 There are   164 symmetry adapted cartesian basis functions of A   symmetry.
 There are   149 symmetry adapted basis functions of A   symmetry.
   149 basis functions,   251 primitive gaussians,   164 cartesian basis functions
    25 alpha electrons       25 beta electrons
       nuclear repulsion energy       288.7774875495 Hartrees.
 NAtoms=    6 NActive=    6 NUniq=    6 SFac= 1.00D+00 NAtFMM=   60 NAOKFM=F Big=F
 Integral buffers will be    131072 words long.
 Raffenetti 2 integral format.
 Two-electron integral symmetry is turned on.
 One-electron integrals computed using PRISM.
 NBasis=   149 RedAO= T EigKep=  1.51D-03  NBF=   149
 NBsUse=   149 1.00D-06 EigRej= -1.00D+00 NBFU=   149
 Initial guess from the checkpoint file:  "FHSO3g4.chk"
 B after Tr=     0.000000    0.000000    0.000000
         Rot=    0.999912   -0.008030   -0.008452    0.006275 Ang=  -1.52 deg.
 ExpMin= 1.17D-01 ExpMax= 2.19D+04 ExpMxC= 3.30D+03 IAcc=1 IRadAn=         1 AccDes= 0.00D+00
 Harris functional with IExCor=  402 and IRadAn=       1 diagonalized for initial guess.
 HarFok:  IExCor=  402 AccDes= 0.00D+00 IRadAn=         1 IDoV= 1 UseB2=F ITyADJ=14
 ICtDFT=  3500011 ScaDFX=  1.000000  1.000000  1.000000  1.000000
 FoFCou: FMM=F IPFlag=           0 FMFlag=      100000 FMFlg1=           0
         NFxFlg=           0 DoJE=T BraDBF=F KetDBF=T FulRan=T
         wScrn=  0.000000 ICntrl=     500 IOpCl=  0 I1Cent=   200000004 NGrid=           0
         NMat0=    1 NMatS0=      1 NMatT0=    0 NMatD0=    1 NMtDS0=    0 NMtDT0=    0
 Petite list used in FoFCou.
 Requested convergence on RMS density matrix=1.00D-08 within 128 cycles.
 Requested convergence on MAX density matrix=1.00D-06.
 Requested convergence on             energy=1.00D-06.
 No special actions if energy rises.
 Integral accuracy reduced to 1.0D-05 until final iterations.
 Initial convergence to 1.0D-05 achieved.  Increase integral accuracy.
 SCF Done:  E(RB3LYP) =  -724.295665074     A.U. after   10 cycles
            NFock= 10  Conv=0.43D-08     -V/T= 2.0043
 Calling FoFJK, ICntrl=      2127 FMM=F ISym2X=0 I1Cent= 0 IOpClX= 0 NMat=1 NMatS=1 NMatT=0.
 ***** Axes restored to original set *****
 -------------------------------------------------------------------
 Center     Atomic                   Forces (Hartrees/Bohr)
 Number     Number              X              Y              Z
 -------------------------------------------------------------------
      1       16          -0.000175515   -0.000539910    0.000252708
      2        8           0.000196725    0.000248832    0.000007962
      3        8          -0.000240419   -0.000106048   -0.000224667
      4        1          -0.000029864    0.000158081    0.000135142
      5        8           0.000112824    0.000100079   -0.000137455
      6        9           0.000136249    0.000138967   -0.000033691
 -------------------------------------------------------------------
 Cartesian Forces:  Max     0.000539910 RMS     0.000201545

 GradGradGradGradGradGradGradGradGradGradGradGradGradGradGradGradGradGrad
 Berny optimization.
 Using GEDIIS/GDIIS optimizer.
 FormGI is forming the generalized inverse of G from B-inverse, IUseBI=4.
 Internal  Forces:  Max     0.000652781 RMS     0.000249638
 Search for a local minimum.
 Step number   7 out of a maximum of   25
 All quantities printed in internal units (Hartrees-Bohrs-Radians)
 Mixed Optimization -- En-DIIS/RFO-DIIS
 Swapping is turned off.
 Update second derivatives using D2CorX and points    1    2    3    4    5
                                                      6    7
 DE= -9.34D-06 DEPred=-9.50D-06 R= 9.84D-01
 TightC=F SS=  1.41D+00  RLast= 5.56D-02 DXNew= 4.2426D-01 1.6691D-01
 Trust test= 9.84D-01 RLast= 5.56D-02 DXMaxT set to 2.52D-01
 The second derivative matrix:
                          R1        R2        R3        R4        R5
           R1           1.01787
           R2          -0.02539   0.49267
           R3          -0.06814  -0.03749   0.95462
           R4          -0.01332  -0.04458  -0.01156   0.33314
           R5           0.00685   0.00537   0.00137  -0.01100   0.53737
           A1          -0.01034   0.01330  -0.04159  -0.00426   0.01699
           A2          -0.00024  -0.00886   0.00794  -0.00859  -0.00550
           A3           0.01427  -0.00178   0.02078   0.00591  -0.00579
           A4          -0.00503  -0.00417   0.00679  -0.01318  -0.00613
           A5           0.00363   0.01231  -0.00774   0.00845   0.00832
           A6           0.00008  -0.00622   0.01293   0.01690  -0.00543
           A7           0.02948   0.02415   0.02534   0.01392   0.00283
[...]
      3          8           0       -1.212160    0.830140    0.217149
      4          1           0       -1.986387    0.247570    0.185111
      5          8           0       -0.297199   -1.187104   -0.859334
      6          9           0        0.463867   -0.483032    1.303106
 ---------------------------------------------------------------------
 Rotational constants (GHZ):      5.0062803      4.9603371      4.8778654
 Standard basis: GFHFB2 (5D, 7F)
 There are   680 symmetry adapted cartesian basis functions of A   symmetry.
 There are   503 symmetry adapted basis functions of A   symmetry.
   503 basis functions,   837 primitive gaussians,   680 cartesian basis functions
    25 alpha electrons       25 beta electrons
       nuclear repulsion energy       288.7479013078 Hartrees.
 NAtoms=    6 NActive=    6 NUniq=    6 SFac= 1.00D+00 NAtFMM=   60 NAOKFM=F Big=F
 Integral buffers will be    131072 words long.
 Raffenetti 1 integral format.
 Two-electron integral symmetry is turned on.
 One-electron integrals computed using PRISM.
 NBasis=   503 RedAO= T EigKep=  2.38D-05  NBF=   503
 NBsUse=   503 1.00D-06 EigRej= -1.00D+00 NBFU=   503
 Initial guess from the checkpoint file:  "FHSO3g4.chk"
 B after Tr=     0.000000    0.000000    0.000000
         Rot=    1.000000    0.000000    0.000000    0.000000 Ang=   0.00 deg.
 Requested convergence on RMS density matrix=1.00D-08 within 128 cycles.
 Requested convergence on MAX density matrix=1.00D-06.
 Requested convergence on             energy=1.00D-06.
 No special actions if energy rises.
 SCF Done:  E(RHF) =  -722.305628514     A.U. after    9 cycles
            NFock=  9  Conv=0.59D-08     -V/T= 2.0010

 **********************************************************************

            Population analysis using the SCF density.

 **********************************************************************

 Orbital symmetries:
       Occupied  (A) (A) (A) (A) (A) (A) (A) (A) (A) (A) (A) (A)
                 (A) (A) (A) (A) (A) (A) (A) (A) (A) (A) (A) (A)
                 (A)
       Virtual   (A) (A) (A) (A) (A) (A) (A) (A) (A) (A) (A) (A)
                 (A) (A) (A) (A) (A) (A) (A) (A) (A) (A) (A) (A)
                 (A) (A) (A) (A) (A) (A) (A) (A) (A) (A) (A) (A)
                 (A) (A) (A) (A) (A) (A) (A) (A) (A) (A) (A) (A)
                 (A) (A) (A) (A) (A) (A) (A) (A) (A) (A) (A) (A)
                 (A) (A) (A) (A) (A) (A) (A) (A) (A) (A) (A) (A)
                 (A) (A) (A) (A) (A) (A) (A) (A) (A) (A) (A) (A)
                 (A) (A) (A) (A) (A) (A) (A) (A) (A) (A) (A) (A)
                 (A) (A) (A) (A) (A) (A) (A) (A) (A) (A) (A) (A)
                 (A) (A) (A) (A) (A) (A) (A) (A) (A) (A) (A) (A)
                 (A) (A) (A) (A) (A) (A) (A) (A) (A) (A) (A) (A)
                 (A) (A) (A) (A) (A) (A) (A) (A) (A) (A) (A) (A)
                 (A) (A) (A) (A) (A) (A) (A) (A) (A) (A) (A) (A)
                 (A) (A) (A) (A) (A) (A) (A) (A) (A) (A) (A) (A)
                 (A) (A) (A) (A) (A) (A) (A) (A) (A) (A) (A) (A)
                 (A) (A) (A) (A) (A) (A) (A) (A) (A) (A) (A) (A)
                 (A) (A) (A) (A) (A) (A) (A) (A) (A) (A) (A) (A)
                 (A) (A) (A) (A) (A) (A) (A) (A) (A) (A) (A) (A)
                 (A) (A) (A) (A) (A) (A) (A) (A) (A) (A) (A) (A)
                 (A) (A) (A) (A) (A) (A) (A) (A) (A) (A) (A) (A)
                 (A) (A) (A) (A) (A) (A) (A) (A) (A) (A) (A) (A)
                 (A) (A) (A) (A) (A) (A) (A) (A) (A) (A) (A) (A)
                 (A) (A) (A) (A) (A) (A) (A) (A) (A) (A) (A) (A)
                 (A) (A) (A) (A) (A) (A) (A) (A) (A) (A) (A) (A)
                 (A) (A) (A) (A) (A) (A) (A) (A) (A) (A) (A) (A)
                 (A) (A) (A) (A) (A) (A) (A) (A) (A) (A) (A) (A)
                 (A) (A) (A) (A) (A) (A) (A) (A) (A) (A) (A) (A)
                 (A) (A) (A) (A) (A) (A) (A) (A) (A) (A) (A) (A)
                 (A) (A) (A) (A) (A) (A) (A) (A) (A) (A) (A) (A)
                 (A) (A) (A) (A) (A) (A) (A) (A) (A) (A) (A) (A)
                 (A) (A) (A) (A) (A) (A) (A) (A) (A) (A) (A) (A)
                 (A) (A) (A) (A) (A) (A) (A) (A) (A) (A) (A) (A)
                 (A) (A) (A) (A) (A) (A) (A) (A) (A) (A) (A) (A)
                 (A) (A) (A) (A) (A) (A) (A) (A) (A) (A) (A) (A)
                 (A) (A) (A) (A) (A) (A) (A) (A) (A) (A) (A) (A)
                 (A) (A) (A) (A) (A) (A) (A) (A) (A) (A) (A) (A)
                 (A) (A) (A) (A) (A) (A) (A) (A) (A) (A) (A) (A)
                 (A) (A) (A) (A) (A) (A) (A) (A) (A) (A) (A) (A)
                 (A) (A) (A) (A) (A) (A) (A) (A) (A) (A) (A) (A)
                 (A) (A) (A) (A) (A) (A) (A) (A) (A) (A)
 The electronic state is 1-A.
 Alpha  occ. eigenvalues --  -92.29143 -26.38144 -20.67861 -20.61076 -20.60634
 Alpha  occ. eigenvalues --   -9.24950  -6.93729  -6.93598  -6.93433  -1.71477
 Alpha  occ. eigenvalues --   -1.54091  -1.44443  -1.41629  -0.95644  -0.85286
 Alpha  occ. eigenvalues --   -0.78532  -0.78153  -0.74388  -0.70768  -0.66598
 Alpha  occ. eigenvalues --   -0.63523  -0.59744  -0.57041  -0.55095  -0.53456
 Alpha virt. eigenvalues --    0.03412   0.05803   0.06154   0.06319   0.10494
 Alpha virt. eigenvalues --    0.11475   0.12330   0.12853   0.13053   0.16115
 Alpha virt. eigenvalues --    0.16834   0.17960   0.18266   0.18711   0.19726
 Alpha virt. eigenvalues --    0.20771   0.20783   0.22056   0.23369   0.27126
 Alpha virt. eigenvalues --    0.27775   0.28310   0.30643   0.32011   0.35540
 Alpha virt. eigenvalues --    0.38703   0.40337   0.42941   0.45709   0.46822
 Alpha virt. eigenvalues --    0.48122   0.48999   0.52207   0.53395   0.54657
 Alpha virt. eigenvalues --    0.56790   0.57605   0.58541   0.59656   0.60003
 Alpha virt. eigenvalues --    0.61668   0.65654   0.66338   0.69102   0.71969
 Alpha virt. eigenvalues --    0.75953   0.80072   0.82176   0.83815   0.89594
 Alpha virt. eigenvalues --    0.91472   0.92587   1.00167   1.02284   1.04128
 Alpha virt. eigenvalues --    1.04712   1.07221   1.09415   1.10751   1.14708
 Alpha virt. eigenvalues --    1.17093   1.18549   1.21638   1.25196   1.26034
 Alpha virt. eigenvalues --    1.30001   1.31080   1.31998   1.33694   1.34973
 Alpha virt. eigenvalues --    1.40189   1.40817   1.41250   1.43158   1.47894
 Alpha virt. eigenvalues --    1.50516   1.52423   1.53209   1.54661   1.57288
 Alpha virt. eigenvalues --    1.58226   1.63194   1.66760   1.68468   1.73813
 Alpha virt. eigenvalues --    1.75231   1.76582   1.76982   1.81821   1.85943
 Alpha virt. eigenvalues --    1.92624   1.93499   1.96218   2.03744   2.14521
 Alpha virt. eigenvalues --    2.15836   2.18124   2.19628   2.23450   2.23697
 Alpha virt. eigenvalues --    2.24497   2.27506   2.31392   2.32257   2.34965
 Alpha virt. eigenvalues --    2.37205   2.38592   2.39658   2.42602   2.43279
 Alpha virt. eigenvalues --    2.49356   2.51372   2.53895   2.56277   2.58165
 Alpha virt. eigenvalues --    2.61894   2.64715   2.66534   2.68276   2.69754
 Alpha virt. eigenvalues --    2.72764   2.76374   2.79099   2.82514   2.85225
 Alpha virt. eigenvalues --    2.88166   2.92141   2.93138   2.96325   2.98415
 Alpha virt. eigenvalues --    3.00554   3.06077   3.07690   3.08451   3.10810
 Alpha virt. eigenvalues --    3.12164   3.13638   3.16470   3.18645   3.22215
 Alpha virt. eigenvalues --    3.27263   3.31202   3.32988   3.35076   3.36182
 Alpha virt. eigenvalues --    3.38442   3.39049   3.40209   3.48236   3.51104
 Alpha virt. eigenvalues --    3.51498   3.53520   3.55871   3.60821   3.66374
 Alpha virt. eigenvalues --    3.67212   3.69637   3.73284   3.78237   3.79360
 Alpha virt. eigenvalues --    3.84820   3.86661   3.98502   4.02128   4.06746
 Alpha virt. eigenvalues --    4.07564   4.13935   4.17044   4.23364   4.28077
 Alpha virt. eigenvalues --    4.28556   4.32591   4.34444   4.40348   4.42574
 Alpha virt. eigenvalues --    4.51846   4.54613   4.57073   4.62775   4.73371
 Alpha virt. eigenvalues --    4.73741   4.76210   4.80521   4.86635   4.87979
 Alpha virt. eigenvalues --    5.04503   5.07935   5.10649   5.11167   5.17554
 Alpha virt. eigenvalues --    5.18862   5.24061   5.27652   5.31189   5.32210
 Alpha virt. eigenvalues --    5.35279   5.41338   5.48935   5.50283   5.64861
 Alpha virt. eigenvalues --    5.65577   5.68612   5.72662   5.79303   5.81587
 Alpha virt. eigenvalues --    5.82688   5.85321   5.86876   5.90344   5.92063
 Alpha virt. eigenvalues --    5.95931   5.97744   6.03234   6.04833   6.06915
 Alpha virt. eigenvalues --    6.07624   6.16037   6.17838   6.19688   6.20545
 Alpha virt. eigenvalues --    6.25503   6.28201   6.33614   6.34384   6.40269
 Alpha virt. eigenvalues --    6.44139   6.45253   6.51906   6.55027   6.58439
 Alpha virt. eigenvalues --    6.61170   6.63841   6.76489   6.79028   6.85088
 Alpha virt. eigenvalues --    6.91740   6.95160   6.99306   7.13626   7.17062
 Alpha virt. eigenvalues --    7.19083   7.21493   7.24265   7.27146   7.30009
 Alpha virt. eigenvalues --    7.33053   7.34172   7.37711   7.39558   7.41045
 Alpha virt. eigenvalues --    7.45383   7.47059   7.53778   7.55285   7.57332
 Alpha virt. eigenvalues --    7.59232   7.64945   7.67849   7.70341   7.72747
 Alpha virt. eigenvalues --    7.76790   7.81851   7.83013   7.83279   7.90053
 Alpha virt. eigenvalues --    7.90767   7.94397   7.96894   7.99105   8.02452
 Alpha virt. eigenvalues --    8.05267   8.15257   8.17469   8.19739   8.21425
 Alpha virt. eigenvalues --    8.37582   8.42778   8.46550   8.49665   8.50300
 Alpha virt. eigenvalues --    8.56264   8.57089   8.64256   8.68168   8.70873
 Alpha virt. eigenvalues --    8.74605   8.77263   8.79862   8.84639   8.88587
 Alpha virt. eigenvalues --    8.96635   8.97682   9.05179   9.13745   9.16602
 Alpha virt. eigenvalues --    9.26238   9.47918   9.53040   9.55619   9.60390
 Alpha virt. eigenvalues --    9.75609   9.78052   9.89917   9.93724   9.98623
 Alpha virt. eigenvalues --   10.05174  10.06856  10.14120  10.21479  10.25689
 Alpha virt. eigenvalues --   10.29769  10.44149  10.56658  10.65496  10.67008
 Alpha virt. eigenvalues --   10.75980  10.80843  10.87760  10.90925  11.07637
 Alpha virt. eigenvalues --   11.17279  11.24229  11.44443  11.58042  11.76996
 Alpha virt. eigenvalues --   12.03559  12.22802  12.27021  14.17826  14.18319
 Alpha virt. eigenvalues --   14.21472  14.23238  14.23635  14.23668  14.24238
 Alpha virt. eigenvalues --   14.24302  14.24930  14.25551  14.31025  14.33471
 Alpha virt. eigenvalues --   14.34059  14.35891  14.44301  14.46967  14.49075
 Alpha virt. eigenvalues --   14.51075  14.52193  14.58143  14.65764  14.70123
 Alpha virt. eigenvalues --   14.72524  14.84184  14.88132  14.94507  14.97313
 Alpha virt. eigenvalues --   14.98751  15.06467  15.08207  15.13696  15.35466
 Alpha virt. eigenvalues --   15.53853  15.78831  15.91475  16.16626  16.27198
 Alpha virt. eigenvalues --   16.37132  16.38663  16.43461  17.21849  17.67985
 Alpha virt. eigenvalues --   17.69363  18.20138  18.26590  18.26670  18.26940
 Alpha virt. eigenvalues --   18.27937  18.28635  18.28640  18.34307  18.34610
 Alpha virt. eigenvalues --   18.42612  18.44399  18.45061  18.48763  18.49280
 Alpha virt. eigenvalues --   18.51517  18.52315  18.56376  18.57539  18.66292
 Alpha virt. eigenvalues --   18.69590  18.71410  18.73884  18.85142  18.89434
 Alpha virt. eigenvalues --   18.94350  18.98968  19.00118  19.02922  19.04296
 Alpha virt. eigenvalues --   19.08022  19.10001  19.13014  19.14788  19.18087
 Alpha virt. eigenvalues --   19.22373  19.23455  19.26645  19.32250  19.33705
 Alpha virt. eigenvalues --   19.36615  19.37917  19.38864  19.40641  19.43488
 Alpha virt. eigenvalues --   19.47341  19.49726  19.53041  19.54561  19.57763
 Alpha virt. eigenvalues --   19.62473  19.63989  19.69089  19.75277  19.79030
 Alpha virt. eigenvalues --   19.86484  19.89495  19.95924  20.01579  20.03609
 Alpha virt. eigenvalues --   20.37682  20.53305  20.68279  22.10709  22.16000
 Alpha virt. eigenvalues --   22.18514  22.19498  22.22064  22.28263  22.58389
 Alpha virt. eigenvalues --   22.60881  22.89915  23.00411  23.04487  23.14930
 Alpha virt. eigenvalues --   23.18137  23.45471  23.53858  23.68609  23.70408
 Alpha virt. eigenvalues --   23.74269  23.79085  23.80148  23.99395  24.01525
 Alpha virt. eigenvalues --   24.23949  24.28148  24.29879  25.33826  25.35359
 Alpha virt. eigenvalues --   25.59474  25.64485  26.00618  26.05888  26.16518
 Alpha virt. eigenvalues --   27.49811  28.29427  28.75404  28.78538  28.96896
 Alpha virt. eigenvalues --   29.12827  29.17013  29.96359  62.62801  62.82356
 Alpha virt. eigenvalues --   62.87773  73.21457  79.31969
          Condensed to atoms (all electrons):
               1          2          3          4          5          6
     1  S   12.890665   0.657678   0.340178  -0.000718   0.625579   0.260881
     2  O    0.657678   7.854466  -0.037505   0.003020  -0.033160  -0.024563
     3  O    0.340178  -0.037505   7.949151   0.294115  -0.025575  -0.012171
     4  H   -0.000718   0.003020   0.294115   0.286644  -0.000531  -0.001923
     5  O    0.625579  -0.033160  -0.025575  -0.000531   7.910461  -0.020797
     6  F    0.260881  -0.024563  -0.012171  -0.001923  -0.020797   9.059599
 Mulliken charges:
               1
     1  S    1.225737
     2  O   -0.419936
     3  O   -0.508192
     4  H    0.419394
     5  O   -0.455976
     6  F   -0.261026
 Sum of Mulliken charges =   0.00000
 Mulliken charges with hydrogens summed into heavy atoms:
               1
     1  S    1.225737
     2  O   -0.419936
     3  O   -0.088799
     5  O   -0.455976
     6  F   -0.261026
 Electronic spatial extent (au):  <R**2>=            353.5225
 Charge=              0.0000 electrons
 Dipole moment (field-independent basis, Debye):
    X=             -2.8614    Y=             -0.1609    Z=              1.1460  Tot=              3.0866
 Quadrupole moment (field-independent basis, Debye-Ang):
   XX=            -29.2724   YY=            -38.0514   ZZ=            -35.4508
   XY=             -1.4385   XZ=             -0.0037   YZ=             -0.9793
 Traceless Quadrupole moment (field-independent basis, Debye-Ang):
   XX=              4.9858   YY=             -3.7932   ZZ=             -1.1926
   XY=             -1.4385   XZ=             -0.0037   YZ=             -0.9793
 Octapole moment (field-independent basis, Debye-Ang**2):
  XXX=            -15.7738  YYY=             -0.6457  ZZZ=              5.5234  XYY=              1.1919
  XXY=             -3.2982  XXZ=              4.1740  XZZ=             -0.5071  YZZ=              1.2602
  YYZ=              4.7325  XYZ=              2.2564
 Hexadecapole moment (field-independent basis, Debye-Ang**3):
 XXXX=           -101.6544 YYYY=           -136.2039 ZZZZ=           -115.8980 XXXY=             -4.6775
 XXXZ=              0.4842 YYYX=             -2.2001 YYYZ=             -4.6223 ZZZX=              2.2397
 ZZZY=             -3.7287 XXYY=            -47.3018 XXZZ=            -42.1814 YYZZ=            -43.1267
 XXYZ=             -0.4000 YYXZ=              1.1414 ZZXY=             -1.1254
 N-N= 2.887479013078D+02 E-N=-2.293464124070D+03  KE= 7.216057984224D+02
 1\1\GINC-BLADI35\SP\RHF\GFHFB2\F1H1O3S1\SARARIOP\22-Jun-2017\0\\#N Geo
 m=AllCheck Guess=TCheck SCRF=Check HF/GFHFB2 SCF=Tight\\Title Card Req
 uired\\0,1\S,0,-0.2796784694,0.510850904,-0.0203150401\O,0,0.689042643
 ,-0.5162721138,0.0968607472\O,0,-1.618605779,-0.1566859824,-0.53954288
 95\H,0,-2.3629971775,0.4251956719,-0.3224281143\O,0,-0.5777442782,1.46
 35704827,0.9955844705\F,0,0.085535861,1.3340215977,-1.3053631738\\Vers
 ion=AM64L-G09RevD.01\State=1-A\HF=-722.3056285\RMSD=5.897e-09\Dipole=-
 1.1341698,0.2241691,-0.3715445\Quadrupole=3.7878035,-2.3767549,-1.4110
 486,0.7513951,0.0335332,-1.1637767\PG=C01 [X(F1H1O3S1)]\\@


 The most important thing in communication is to hear what isn't being said.
 -- Peter F. Drucker
 Diagonal vibrational polarizability:
        0.0000000       0.0000000       0.0000000

 Temperature=              298.150000 Pressure=                      1.000000
 E(ZPE)=                     0.026848 E(Thermal)=                    0.031620
 E(CCSD(T))=              -722.912160 E(Empiric)=                   -0.111152
 DE(Plus)=                  -0.029243 DE(2DF)=                      -0.314862
 E(Delta-G3XP)=             -0.705111 DE(HF)=                       -0.054302
 G4(0 K)=                 -724.099982 G4 Energy=                  -724.095210
 G4 Enthalpy=             -724.094266 G4 Free Energy=             -724.128053
 1\1\GINC-BLADI35\Mixed\G4\G4\F1H1O3S1\SARARIOP\22-Jun-2017\0\\# g4 geo
 m=connectivity\\Title Card Required\\0,1\S,0,-0.2796784694,0.510850904
 ,-0.0203150401\O,0,0.689042643,-0.5162721138,0.0968607472\O,0,-1.61860
 5779,-0.1566859824,-0.5395428895\H,0,-2.3629971775,0.4251956719,-0.322
 4281143\O,0,-0.5777442782,1.4635704827,0.9955844705\F,0,0.085535861,1.
 3340215977,-1.3053631738\\Version=AM64L-G09RevD.01\State=1-A\MP2/GTBas
 1=-722.8862238\MP4/GTBas1=-722.9199812\CCSD(T)/G3Bas1=-722.9121598\MP2
 /GTBas2=-722.9123431\MP4/GTBas2=-722.9492244\MP2/GTBas3=-723.1815593\M
 P4/GTBas3=-723.2348432\HF/GTLargeXP=-722.2559727\MP2/GTLargeXP=-723.91
 27892\HF/GFHFB1=-722.2865616\HF/GFHFB2=-722.3056285\G4=-724.099982\Fre
 qCoord=-0.5285157124,0.9653683032,-0.0383898621,1.3021018892,-0.975612
 9051,0.1830402852,-3.0587216395,-0.2960935956,-1.019588298,-4.46541751
 82,0.8035033728,-0.6093008336,-1.0917784605,2.7657473885,1.8813819913,
 0.1616393519,2.5209354749,-2.4667789025\PG=C01 [X(F1H1O3S1)]\NImag=0\\
 0.83154743,-0.33584201,1.00938802,-0.03072460,0.20446061,0.77302984,-0
 .37511645,0.30752521,-0.03492325,0.38518456,0.30964079,-0.41802691,0.0
 3129333,-0.33589253,0.41986516,-0.02740582,0.02455971,-0.09641057,0.04
 156196,-0.04172014,0.07391859,-0.20865196,-0.06459389,-0.06010820,-0.0
 3028749,-0.00852248,-0.01241453,0.54649162,-0.03244384,-0.12190330,-0.
 03748038,0.02784914,0.01053293,0.01084583,-0.13989812,0.31638082,-0.04
 244410,-0.04175630,-0.09622701,0.00062101,-0.00217613,0.01183592,-0.02
 184693,0.12550653,0.11254776,-0.04502370,0.02201397,0.00515265,-0.0007
 4487,-0.00385727,-0.00262410,-0.29672115,0.19429145,0.06936096,0.33235
 059,-0.01550288,0.01222182,0.00422900,-0.00405203,0.00172424,-0.002625
 68,0.23504902,-0.20031708,-0.07662029,-0.21324988,0.19472555,-0.014705
 83,0.00940619,0.00642202,-0.00677152,-0.00101459,-0.00060155,0.0924823
 6,-0.08270993,-0.03524027,-0.07471682,0.07463622,0.03376441,-0.1258275
 5,0.08702988,0.08335417,0.01002357,0.02192060,0.01807525,0.00426377,-0
 .02656017,-0.02621605,0.00793440,0.00033059,0.00324886,0.09290532,0.08
 710645,-0.35871602,-0.28342212,0.00645941,-0.00236290,-0.02249631,-0.0
 0354043,-0.00293154,-0.01858658,0.00154337,-0.00371744,-0.00143380,-0.
 08702682,0.35371245,0.08158639,-0.27763983,-0.38371346,-0.00592269,0.0
 0422454,0.01303410,-0.00107433,-0.01701861,-0.00114465,0.00372597,-0.0
 0118519,-0.00285471,-0.09055137,0.30990262,0.40084758,-0.07692777,-0.0
 1613316,0.03724923,0.01094069,0.01671088,-0.01719278,-0.01509479,-0.02
 323846,0.02052511,0.00220474,-0.00257483,0.00046295,0.01070050,-0.0045
 4197,0.01223603,0.06817663,-0.01295852,-0.12296362,0.08091956,-0.00188
 919,-0.01173253,0.03143658,-0.01849410,-0.00176184,0.01363278,-0.00074
 164,-0.00463710,0.00111591,0.00430592,0.01401543,-0.01828354,0.0297775
 3,0.12707965,0.03369396,0.08096963,-0.20310082,0.00543450,0.00939298,-
 0.00177649,0.00296161,0.00085655,0.00822824,-0.00089867,0.00156595,-0.
 00148990,0.01208914,0.01603619,-0.02616886,-0.05328054,-0.10882129,0.2
 2430783\\-0.00015979,0.00009276,-0.00013973,0.00008908,-0.00010892,0.0
 0001437,0.00003164,0.00002822,0.00004136,0.00001931,-0.00008317,-0.000
 03178,-0.00000400,0.00007465,0.00011179,0.00002377,-0.00000354,0.00000
 399\\\@
 Job cpu time:       0 days  2 hours 16 minutes 34.0 seconds.
 File lengths (MBytes):  RWF=   5519 Int=      0 D2E=      0 Chk=     12 Scr=      1
 Normal termination of Gaussian 09 at Thu Jun 22 21:29:07 2017.
