 Entering Gaussian System, Link 0=g09
 Initial command:
 /usr/local/gaussian/gaussian09.d1/g09/l1.exe "/scratch/sarariop/H2ClPO4-A.com/Gau-24317.inp" -scrdir="/scratch/sarariop/H2ClPO4-A.com/"
 Default is to use a total of   8 processors:
                                8 via shared-memory
                                1 via Linda
 Entering Link 1 = /usr/local/gaussian/gaussian09.d1/g09/l1.exe PID=     24318.
  
 Copyright (c) 1988,1990,1992,1993,1995,1998,2003,2009,2013,
            Gaussian, Inc.  All Rights Reserved.
  
 This is part of the Gaussian(R) 09 program.  It is based on
 the Gaussian(R) 03 system (copyright 2003, Gaussian, Inc.),
 the Gaussian(R) 98 system (copyright 1998, Gaussian, Inc.),
 the Gaussian(R) 94 system (copyright 1995, Gaussian, Inc.),
 the Gaussian 92(TM) system (copyright 1992, Gaussian, Inc.),
 the Gaussian 90(TM) system (copyright 1990, Gaussian, Inc.),
 the Gaussian 88(TM) system (copyright 1988, Gaussian, Inc.),
 the Gaussian 86(TM) system (copyright 1986, Carnegie Mellon
 University), and the Gaussian 82(TM) system (copyright 1983,
 Carnegie Mellon University). Gaussian is a federally registered
 trademark of Gaussian, Inc.
  
 This software contains proprietary and confidential information,
 including trade secrets, belonging to Gaussian, Inc.
  
 This software is provided under written license and may be
 used, copied, transmitted, or stored only in accord with that
 written license.
  
 The following legend is applicable only to US Government
 contracts under FAR:
  
                    RESTRICTED RIGHTS LEGEND
  
 Use, reproduction and disclosure by the US Government is
 subject to restrictions as set forth in subparagraphs (a)
 and (c) of the Commercial Computer Software - Restricted
 Rights clause in FAR 52.227-19.
  
 Gaussian, Inc.
 340 Quinnipiac St., Bldg. 40, Wallingford CT 06492
  
  
 ---------------------------------------------------------------
 Warning -- This program may not be used in any manner that
 competes with the business of Gaussian, Inc. or will provide
 assistance to any competitor of Gaussian, Inc.  The licensee
 of this program is prohibited from giving any competitor of
 Gaussian, Inc. access to this program.  By using this program,
 the user acknowledges that Gaussian, Inc. is engaged in the
 business of creating and licensing software in the field of
 computational chemistry and represents and warrants to the
 licensee that it is not a competitor of Gaussian, Inc. and that
 it will not use this program in any manner prohibited above.
 ---------------------------------------------------------------
  

 Cite this work as:
 Gaussian 09, Revision D.01,
 M. J. Frisch, G. W. Trucks, H. B. Schlegel, G. E. Scuseria, 
 M. A. Robb, J. R. Cheeseman, G. Scalmani, V. Barone, B. Mennucci, 
 G. A. Petersson, H. Nakatsuji, M. Caricato, X. Li, H. P. Hratchian, 
 A. F. Izmaylov, J. Bloino, G. Zheng, J. L. Sonnenberg, M. Hada, 
 M. Ehara, K. Toyota, R. Fukuda, J. Hasegawa, M. Ishida, T. Nakajima, 
 Y. Honda, O. Kitao, H. Nakai, T. Vreven, J. A. Montgomery, Jr., 
 J. E. Peralta, F. Ogliaro, M. Bearpark, J. J. Heyd, E. Brothers, 
 K. N. Kudin, V. N. Staroverov, T. Keith, R. Kobayashi, J. Normand, 
 K. Raghavachari, A. Rendell, J. C. Burant, S. S. Iyengar, J. Tomasi, 
 M. Cossi, N. Rega, J. M. Millam, M. Klene, J. E. Knox, J. B. Cross, 
 V. Bakken, C. Adamo, J. Jaramillo, R. Gomperts, R. E. Stratmann, 
 O. Yazyev, A. J. Austin, R. Cammi, C. Pomelli, J. W. Ochterski, 
 R. L. Martin, K. Morokuma, V. G. Zakrzewski, G. A. Voth, 
 P. Salvador, J. J. Dannenberg, S. Dapprich, A. D. Daniels, 
 O. Farkas, J. B. Foresman, J. V. Ortiz, J. Cioslowski, 
 and D. J. Fox, Gaussian, Inc., Wallingford CT, 2013.
 
 ******************************************
 Gaussian 09:  AM64L-G09RevD.01 24-Apr-2013
                21-Jun-2017 
 ******************************************
 %chk=H2ClPO4-A.chk
 Default route:  MaxDisk=56GB
 -----------------------------------------
 # opt freq b3lyp/6-311g geom=connectivity
 -----------------------------------------
 1/14=-1,18=20,19=15,26=3,38=1,57=2/1,3;
 2/9=110,12=2,17=6,18=5,40=1/2;
 3/5=4,6=6,11=2,16=1,25=1,30=1,71=1,74=-5/1,2,3;
 4//1;
 5/5=2,38=5/2;
 6/7=2,8=2,9=2,10=2,28=1/1;
 7//1,2,3,16;
 1/14=-1,18=20,19=15,26=3/3(2);
 2/9=110/2;
 99//99;
 2/9=110/2;
 3/5=4,6=6,11=2,16=1,25=1,30=1,71=1,74=-5/1,2,3;
 4/5=5,16=3,69=1/1;
 5/5=2,38=5/2;
 7//1,2,3,16;
 1/14=-1,18=20,19=15,26=3/3(-5);
 2/9=110/2;
 6/7=2,8=2,9=2,10=2,19=2,28=1/1;
 99/9=1/99;
 -------------------
 Title Card Required
 -------------------
 Symbolic Z-matrix:
 Charge = -1 Multiplicity = 1
 P                     0.01211   0.54479   0. 
 O                     1.35759  -0.30051  -0.41619 
 O                    -0.09526   1.63437  -1.16197 
 H                    -0.42847   2.47793  -0.83404 
 O                    -0.06377   1.0457    1.37828 
 O                    -1.05546  -0.54987  -0.46516 
 Cl                    2.87445   0.48327  -0.11271 
 

 GradGradGradGradGradGradGradGradGradGradGradGradGradGradGradGradGradGrad
 Berny optimization.
 Initialization pass.
                           ----------------------------
                           !    Initial Parameters    !
                           ! (Angstroms and Degrees)  !
 --------------------------                            --------------------------
 ! Name  Definition              Value          Derivative Info.                !
 --------------------------------------------------------------------------------
 ! R1    R(1,2)                  1.6426         estimate D2E/DX2                !
 ! R2    R(1,3)                  1.5965         estimate D2E/DX2                !
 ! R3    R(1,5)                  1.4684         estimate D2E/DX2                !
 ! R4    R(1,6)                  1.5982         estimate D2E/DX2                !
 ! R5    R(2,7)                  1.7341         estimate D2E/DX2                !
 ! R6    R(3,4)                  0.9644         estimate D2E/DX2                !
 ! A1    A(2,1,3)              102.8199         estimate D2E/DX2                !
 ! A2    A(2,1,5)              117.1094         estimate D2E/DX2                !
 ! A3    A(2,1,6)               96.9457         estimate D2E/DX2                !
 ! A4    A(3,1,5)              116.5417         estimate D2E/DX2                !
 ! A5    A(3,1,6)              102.1626         estimate D2E/DX2                !
 ! A6    A(5,1,6)              118.1836         estimate D2E/DX2                !
 ! A7    A(1,2,7)              116.0757         estimate D2E/DX2                !
 ! A8    A(1,3,4)              111.8816         estimate D2E/DX2                !
 ! D1    D(3,1,2,7)             75.4661         estimate D2E/DX2                !
 ! D2    D(5,1,2,7)            -53.6822         estimate D2E/DX2                !
 ! D3    D(6,1,2,7)            179.6712         estimate D2E/DX2                !
 ! D4    D(2,1,3,4)           -144.4932         estimate D2E/DX2                !
 ! D5    D(5,1,3,4)            -14.9945         estimate D2E/DX2                !
 ! D6    D(6,1,3,4)            115.375          estimate D2E/DX2                !
 --------------------------------------------------------------------------------
 Trust Radius=3.00D-01 FncErr=1.00D-07 GrdErr=1.00D-06
 Number of steps in this run=     30 maximum allowed number of steps=    100.
 GradGradGradGradGradGradGradGradGradGradGradGradGradGradGradGradGradGrad

                          Input orientation:                          
 ---------------------------------------------------------------------
 Center     Atomic      Atomic             Coordinates (Angstroms)
 Number     Number       Type             X           Y           Z
 ---------------------------------------------------------------------
      1         15           0        0.012107    0.544794    0.000000
      2          8           0        1.357589   -0.300508   -0.416191
      3          8           0       -0.095263    1.634368   -1.161971
      4          1           0       -0.428467    2.477931   -0.834039
      5          8           0       -0.063772    1.045704    1.378275
      6          8           0       -1.055456   -0.549873   -0.465160
      7         17           0        2.874449    0.483269   -0.112711
 ---------------------------------------------------------------------
                    Distance matrix (angstroms):
                    1          2          3          4          5
     1  P    0.000000
     2  O    1.642581   0.000000
     3  O    1.596520   2.531938   0.000000
     4  H    2.150987   3.329312   0.964449   0.000000
     5  O    1.468438   2.655685   2.607751   2.660566   0.000000
     6  O    1.598237   2.426390   2.485644   3.113966   2.632025
     7  Cl   2.865221   1.734148   3.353381   3.925334   3.342531
                    6          7
     6  O    0.000000
     7  Cl   4.078695   0.000000
 Stoichiometry    ClHO4P(1-)
 Framework group  C1[X(ClHO4P)]
 Deg. of freedom    15
 Full point group                 C1      NOp   1
 Largest Abelian subgroup         C1      NOp   1
 Largest concise Abelian subgroup C1      NOp   1
                         Standard orientation:                         
 ---------------------------------------------------------------------
 Center     Atomic      Atomic             Coordinates (Angstroms)
 Number     Number       Type             X           Y           Z
 ---------------------------------------------------------------------
      1         15           0       -0.753276   -0.045607   -0.120476
      2          8           0        0.618681    0.847677    0.013122
      3          8           0       -0.906254   -0.679967    1.336597
      4          1           0       -1.267067   -1.573767    1.303425
      5          8           0       -0.838357   -0.975943   -1.253414
      6          8           0       -1.784289    1.174418   -0.066519
      7         17           0        2.108704   -0.039506    0.015613
 ---------------------------------------------------------------------
 Rotational constants (GHZ):      4.4069291      1.6254208      1.5995554
 Standard basis: 6-311G (5D, 7F)
 There are    97 symmetry adapted cartesian basis functions of A   symmetry.
 There are    97 symmetry adapted basis functions of A   symmetry.
    97 basis functions,   192 primitive gaussians,    97 cartesian basis functions
    33 alpha electrons       33 beta electrons
       nuclear repulsion energy       404.8043381648 Hartrees.



 Warning!  P  atom    1 may be hypervalent but has no d functions.



 NAtoms=    7 NActive=    7 NUniq=    7 SFac= 1.00D+00 NAtFMM=   60 NAOKFM=F Big=F
 Integral buffers will be    131072 words long.
 Raffenetti 2 integral format.
 Two-electron integral symmetry is turned on.
 One-electron integrals computed using PRISM.
 NBasis=    97 RedAO= T EigKep=  1.11D-02  NBF=    97
 NBsUse=    97 1.00D-06 EigRej= -1.00D+00 NBFU=    97
 ExpMin= 6.85D-02 ExpMax= 1.06D+05 ExpMxC= 3.62D+03 IAcc=2 IRadAn=         4 AccDes= 0.00D+00
 Harris functional with IExCor=  402 and IRadAn=       4 diagonalized for initial guess.
 HarFok:  IExCor=  402 AccDes= 0.00D+00 IRadAn=         4 IDoV= 1 UseB2=F ITyADJ=14
 ICtDFT=  3500011 ScaDFX=  1.000000  1.000000  1.000000  1.000000
 FoFCou: FMM=F IPFlag=           0 FMFlag=      100000 FMFlg1=           0
         NFxFlg=           0 DoJE=T BraDBF=F KetDBF=T FulRan=T
         wScrn=  0.000000 ICntrl=     500 IOpCl=  0 I1Cent=   200000004 NGrid=           0
         NMat0=    1 NMatS0=      1 NMatT0=    0 NMatD0=    1 NMtDS0=    0 NMtDT0=    0
 Petite list used in FoFCou.
 Keep R1 ints in memory in canonical form, NReq=12265084.
 Requested convergence on RMS density matrix=1.00D-08 within 128 cycles.
 Requested convergence on MAX density matrix=1.00D-06.
 Requested convergence on             energy=1.00D-06.
 No special actions if energy rises.
 Integral accuracy reduced to 1.0D-05 until final iterations.
 EnCoef did     2 forward-backward iterations
 EnCoef did     2 forward-backward iterations
 Initial convergence to 1.0D-05 achieved.  Increase integral accuracy.
 SCF Done:  E(RB3LYP) =  -1103.01477052     A.U. after   19 cycles
            NFock= 19  Conv=0.68D-08     -V/T= 2.0010

 **********************************************************************

            Population analysis using the SCF density.

 **********************************************************************

 Orbital symmetries:
       Occupied  (A) (A) (A) (A) (A) (A) (A) (A) (A) (A) (A) (A)
                 (A) (A) (A) (A) (A) (A) (A) (A) (A) (A) (A) (A)
                 (A) (A) (A) (A) (A) (A) (A) (A) (A)
       Virtual   (A) (A) (A) (A) (A) (A) (A) (A) (A) (A) (A) (A)
                 (A) (A) (A) (A) (A) (A) (A) (A) (A) (A) (A) (A)
                 (A) (A) (A) (A) (A) (A) (A) (A) (A) (A) (A) (A)
                 (A) (A) (A) (A) (A) (A) (A) (A) (A) (A) (A) (A)
                 (A) (A) (A) (A) (A) (A) (A) (A) (A) (A) (A) (A)
                 (A) (A) (A) (A)
 The electronic state is 1-A.
 Alpha  occ. eigenvalues -- -101.44196 -77.04777 -19.02995 -18.99814 -18.91862
 Alpha  occ. eigenvalues --  -18.88111  -9.35535  -7.12351  -7.10825  -7.10778
 Alpha  occ. eigenvalues --   -6.54632  -4.70728  -4.70684  -4.70463  -0.96216
 Alpha  occ. eigenvalues --   -0.90775  -0.84265  -0.75146  -0.66096  -0.46778
 Alpha  occ. eigenvalues --   -0.37888  -0.30935  -0.29334  -0.26741  -0.24010
 Alpha  occ. eigenvalues --   -0.22622  -0.17799  -0.17419  -0.15529  -0.13848
 Alpha  occ. eigenvalues --   -0.13086  -0.08090  -0.07332
 Alpha virt. eigenvalues --    0.05936   0.15781   0.24932   0.28182   0.30616
 Alpha virt. eigenvalues --    0.31977   0.35377   0.38083   0.41283   0.43133
 Alpha virt. eigenvalues --    0.44409   0.45907   0.52859   0.58243   0.86651
 Alpha virt. eigenvalues --    0.87337   0.88725   0.91109   0.97741   0.98113
 Alpha virt. eigenvalues --    1.01566   1.07701   1.10203   1.15680   1.18224
 Alpha virt. eigenvalues --    1.20247   1.26729   1.35381   1.41151   1.46253
 Alpha virt. eigenvalues --    1.60936   1.62408   1.68193   1.82091   2.23790
 Alpha virt. eigenvalues --    2.24700   2.28885   2.31947   4.87905   4.89246
 Alpha virt. eigenvalues --    4.89823   4.93212   4.96053   4.98227   5.01682
 Alpha virt. eigenvalues --    5.03620   5.08687   5.10429   5.11999   5.14803
 Alpha virt. eigenvalues --    6.85299   9.55780  13.88311  13.89906  14.03807
 Alpha virt. eigenvalues --   25.52659  25.55292  25.85110  49.85504  49.89778
 Alpha virt. eigenvalues --   49.97035  50.05108 162.93613 215.49581
          Condensed to atoms (all electrons):
               1          2          3          4          5          6
     1  P   12.913674   0.025448  -0.022173  -0.024019   0.267485   0.384970
     2  O    0.025448   8.876835  -0.056711  -0.001425  -0.057277  -0.061055
     3  O   -0.022173  -0.056711   8.761329   0.235880  -0.067902  -0.087387
     4  H   -0.024019  -0.001425   0.235880   0.395439   0.004726  -0.000995
     5  O    0.267485  -0.057277  -0.067902   0.004726   8.694553  -0.066575
     6  O    0.384970  -0.061055  -0.087387  -0.000995  -0.066575   8.570015
     7  Cl  -0.035933  -0.089969   0.003253   0.001640   0.003350   0.006308
               7
     1  P   -0.035933
     2  O   -0.089969
     3  O    0.003253
     4  H    0.001640
     5  O    0.003350
     6  O    0.006308
     7  Cl  17.064873
 Mulliken charges:
               1
     1  P    1.490548
     2  O   -0.635847
     3  O   -0.766291
     4  H    0.388754
     5  O   -0.778361
     6  O   -0.745282
     7  Cl   0.046478
 Sum of Mulliken charges =  -1.00000
 Mulliken charges with hydrogens summed into heavy atoms:
               1
     1  P    1.490548
     2  O   -0.635847
     3  O   -0.377537
     5  O   -0.778361
     6  O   -0.745282
     7  Cl   0.046478
 Electronic spatial extent (au):  <R**2>=            795.0514
 Charge=             -1.0000 electrons
 Dipole moment (field-independent basis, Debye):
    X=              3.2764    Y=             -3.7633    Z=              2.0443  Tot=              5.3922
 Quadrupole moment (field-independent basis, Debye-Ang):
   XX=            -61.9322   YY=            -56.0019   ZZ=            -58.5803
   XY=              5.7615   XZ=             -3.0947   YZ=             -5.4517
 Traceless Quadrupole moment (field-independent basis, Debye-Ang):
   XX=             -3.0940   YY=              2.8363   ZZ=              0.2578
   XY=              5.7615   XZ=             -3.0947   YZ=             -5.4517
 Octapole moment (field-independent basis, Debye-Ang**2):
  XXX=             11.9825  YYY=            -13.4515  ZZZ=              3.3092  XYY=              5.1963
  XXY=            -19.1058  XXZ=              4.7285  XZZ=              5.1853  YZZ=              4.6615
  YYZ=             10.7701  XYZ=              6.0469
 Hexadecapole moment (field-independent basis, Debye-Ang**3):
 XXXX=           -665.0728 YYYY=           -191.2848 ZZZZ=           -201.8905 XXXY=             21.3692
 XXXZ=             -8.4885 YYYX=             19.6535 YYYZ=            -16.7126 ZZZX=             -5.4657
 ZZZY=            -10.7144 XXYY=           -147.8478 XXZZ=           -143.7060 YYZZ=            -62.2864
 XXYZ=             -7.8145 YYXZ=            -12.7054 ZZXY=              0.1198
 N-N= 4.048043381648D+02 E-N=-3.441750531767D+03  KE= 1.101883978941D+03
 Calling FoFJK, ICntrl=      2127 FMM=F ISym2X=0 I1Cent= 0 IOpClX= 0 NMat=1 NMatS=1 NMatT=0.
 ***** Axes restored to original set *****
 -------------------------------------------------------------------
 Center     Atomic                   Forces (Hartrees/Bohr)
 Number     Number              X              Y              Z
 -------------------------------------------------------------------
      1       15          -0.088641422   -0.106982402   -0.047599401
      2        8          -0.000082374   -0.049131823   -0.023083556
      3        8           0.009411769    0.070564396   -0.042840949
      4        1          -0.000615740    0.009763230   -0.006108408
      5        8           0.009672610    0.057982143    0.107380709
      6        8           0.001412678   -0.010129582    0.002178924
      7       17           0.068842480    0.027934037    0.010072680
 -------------------------------------------------------------------
 Cartesian Forces:  Max     0.107380709 RMS     0.049889316

 GradGradGradGradGradGradGradGradGradGradGradGradGradGradGradGradGradGrad
 Berny optimization.
 FormGI is forming the generalized inverse of G from B-inverse, IUseBI=4.
 Internal  Forces:  Max     0.120070620 RMS     0.043105174
 Search for a local minimum.
 Step number   1 out of a maximum of   30
 All quantities printed in internal units (Hartrees-Bohrs-Radians)
 Mixed Optimization -- RFO/linear search
 Second derivative matrix not updated -- first step.
 The second derivative matrix:
                          R1        R2        R3        R4        R5
           R1           0.43793
           R2           0.00000   0.51896
           R3           0.00000   0.00000   0.88156
           R4           0.00000   0.00000   0.00000   0.51560
           R5           0.00000   0.00000   0.00000   0.00000   0.32075
           R6           0.00000   0.00000   0.00000   0.00000   0.00000
           A1           0.00000   0.00000   0.00000   0.00000   0.00000
           A2           0.00000   0.00000   0.00000   0.00000   0.00000
           A3           0.00000   0.00000   0.00000   0.00000   0.00000
           A4           0.00000   0.00000   0.00000   0.00000   0.00000
           A5           0.00000   0.00000   0.00000   0.00000   0.00000
           A6           0.00000   0.00000   0.00000   0.00000   0.00000
           A7           0.00000   0.00000   0.00000   0.00000   0.00000
           A8           0.00000   0.00000   0.00000   0.00000   0.00000
           D1           0.00000   0.00000   0.00000   0.00000   0.00000
           D2           0.00000   0.00000   0.00000   0.00000   0.00000
           D3           0.00000   0.00000   0.00000   0.00000   0.00000
           D4           0.00000   0.00000   0.00000   0.00000   0.00000
           D5           0.00000   0.00000   0.00000   0.00000   0.00000
           D6           0.00000   0.00000   0.00000   0.00000   0.00000
                          R6        A1        A2        A3        A4
           R6           0.54527
           A1           0.00000   0.25000
           A2           0.00000   0.00000   0.25000
           A3           0.00000   0.00000   0.00000   0.25000
           A4           0.00000   0.00000   0.00000   0.00000   0.25000
           A5           0.00000   0.00000   0.00000   0.00000   0.00000
           A6           0.00000   0.00000   0.00000   0.00000   0.00000
           A7           0.00000   0.00000   0.00000   0.00000   0.00000
           A8           0.00000   0.00000   0.00000   0.00000   0.00000
           D1           0.00000   0.00000   0.00000   0.00000   0.00000
           D2           0.00000   0.00000   0.00000   0.00000   0.00000
           D3           0.00000   0.00000   0.00000   0.00000   0.00000
           D4           0.00000   0.00000   0.00000   0.00000   0.00000
           D5           0.00000   0.00000   0.00000   0.00000   0.00000
           D6           0.00000   0.00000   0.00000   0.00000   0.00000
                          A5        A6        A7        A8        D1
           A5           0.25000
           A6           0.00000   0.25000
           A7           0.00000   0.00000   0.25000
           A8           0.00000   0.00000   0.00000   0.16000
           D1           0.00000   0.00000   0.00000   0.00000   0.02850
           D2           0.00000   0.00000   0.00000   0.00000   0.00000
           D3           0.00000   0.00000   0.00000   0.00000   0.00000
           D4           0.00000   0.00000   0.00000   0.00000   0.00000
           D5           0.00000   0.00000   0.00000   0.00000   0.00000
           D6           0.00000   0.00000   0.00000   0.00000   0.00000
                          D2        D3        D4        D5        D6
           D2           0.02850
           D3           0.00000   0.02850
           D4           0.00000   0.00000   0.03459
           D5           0.00000   0.00000   0.00000   0.03459
           D6           0.00000   0.00000   0.00000   0.00000   0.03459
 ITU=  0
     Eigenvalues ---    0.02850   0.03459   0.12690   0.16000   0.17282
     Eigenvalues ---    0.17736   0.22106   0.25000   0.25000   0.32075
     Eigenvalues ---    0.43793   0.51560   0.51896   0.54527   0.88156
 RFO step:  Lambda=-7.10917910D-02 EMin= 2.84962884D-02
 Linear search not attempted -- first point.
 Maximum step size (   0.300) exceeded in Quadratic search.
    -- Step size scaled by   0.798
 Iteration  1 RMS(Cart)=  0.08636311 RMS(Int)=  0.00373787
 Iteration  2 RMS(Cart)=  0.00430911 RMS(Int)=  0.00218398
 Iteration  3 RMS(Cart)=  0.00002459 RMS(Int)=  0.00218394
 Iteration  4 RMS(Cart)=  0.00000012 RMS(Int)=  0.00218394
 Variable       Old X    -DE/DX   Delta X   Delta X   Delta X     New X
                                 (Linear)    (Quad)   (Total)
    R1        3.10403   0.07054   0.00000   0.11065   0.11065   3.21468
    R2        3.01699   0.08986   0.00000   0.12160   0.12160   3.13859
    R3        2.77495   0.12007   0.00000   0.10064   0.10064   2.87558
    R4        3.02023   0.00536   0.00000   0.00729   0.00729   3.02752
    R5        3.27707   0.07459   0.00000   0.15199   0.15199   3.42905
    R6        1.82255   0.00668   0.00000   0.00865   0.00865   1.83119
    A1        1.79455  -0.00977   0.00000  -0.04266  -0.04614   1.74841
    A2        2.04394  -0.00626   0.00000  -0.03632  -0.04149   2.00246
    A3        1.69202   0.00207   0.00000   0.01902   0.01932   1.71135
    A4        2.03404  -0.02280   0.00000  -0.07745  -0.08152   1.95252
    A5        1.78307   0.02813   0.00000   0.09663   0.09672   1.87980
    A6        2.06269   0.01348   0.00000   0.05821   0.05882   2.12151
    A7        2.02590   0.02442   0.00000   0.06073   0.06073   2.08663
    A8        1.95270   0.01702   0.00000   0.05882   0.05882   2.01152
    D1        1.31713  -0.02396   0.00000  -0.08974  -0.08773   1.22940
    D2       -0.93693   0.01904   0.00000   0.07505   0.07265  -0.86428
    D3        3.13585   0.00411   0.00000   0.00816   0.00854  -3.13879
    D4       -2.52188   0.01392   0.00000   0.06277   0.05897  -2.46292
    D5       -0.26170  -0.01862   0.00000  -0.07559  -0.07171  -0.33342
    D6        2.01367   0.00667   0.00000   0.02767   0.02760   2.04127
         Item               Value     Threshold  Converged?
 Maximum Force            0.120071     0.000450     NO 
 RMS     Force            0.043105     0.000300     NO 
 Maximum Displacement     0.181304     0.001800     NO 
 RMS     Displacement     0.085894     0.001200     NO 
 Predicted change in Energy=-3.795033D-02
 GradGradGradGradGradGradGradGradGradGradGradGradGradGradGradGradGradGrad

                          Input orientation:                          
 ---------------------------------------------------------------------
 Center     Atomic      Atomic             Coordinates (Angstroms)
 Number     Number       Type             X           Y           Z
 ---------------------------------------------------------------------
      1         15           0       -0.067935    0.491923   -0.000342
      2          8           0        1.371090   -0.312464   -0.419902
      3          8           0       -0.087543    1.681746   -1.158973
      4          1           0       -0.394148    2.549394   -0.855346
      5          8           0       -0.086754    1.070661    1.406874
      6          8           0       -1.101144   -0.645815   -0.452823
      7         17           0        2.967618    0.500241   -0.131285
 ---------------------------------------------------------------------
                    Distance matrix (angstroms):
                    1          2          3          4          5
     1  P    0.000000
     2  O    1.701136   0.000000
     3  O    1.660869   2.578897   0.000000
     4  H    2.251807   3.390562   0.969026   0.000000
     5  O    1.521694   2.715780   2.637612   2.720070   0.000000
     6  O    1.602095   2.494824   2.635066   3.297154   2.726491
     7  Cl   3.038387   1.814578   3.433089   4.003094   3.467060
                    6          7
     6  O    0.000000
     7  Cl   4.239299   0.000000
 Stoichiometry    ClHO4P(1-)
 Framework group  C1[X(ClHO4P)]
 Deg. of freedom    15
 Full point group                 C1      NOp   1
 Largest Abelian subgroup         C1      NOp   1
 Largest concise Abelian subgroup C1      NOp   1
                         Standard orientation:                         
 ---------------------------------------------------------------------
 Center     Atomic      Atomic             Coordinates (Angstroms)
 Number     Number       Type             X           Y           Z
 ---------------------------------------------------------------------
      1         15           0       -0.834928    0.003668   -0.119122
      2          8           0        0.615633    0.844307    0.169087
      3          8           0       -0.857237   -1.004179    1.200815
      4          1           0       -1.175175   -1.903304    1.029060
      5          8           0       -0.871167   -0.773841   -1.426683
      6          8           0       -1.852710    1.206843    0.169316
      7         17           0        2.201350   -0.019809   -0.008383
 ---------------------------------------------------------------------
 Rotational constants (GHZ):      4.1408631      1.5098528      1.4781780
 Standard basis: 6-311G (5D, 7F)
 There are    97 symmetry adapted cartesian basis functions of A   symmetry.
 There are    97 symmetry adapted basis functions of A   symmetry.
    97 basis functions,   192 primitive gaussians,    97 cartesian basis functions
    33 alpha electrons       33 beta electrons
       nuclear repulsion energy       391.2219137467 Hartrees.



 Warning!  P  atom    1 may be hypervalent but has no d functions.



 NAtoms=    7 NActive=    7 NUniq=    7 SFac= 1.00D+00 NAtFMM=   60 NAOKFM=F Big=F
 Integral buffers will be    131072 words long.
 Raffenetti 2 integral format.
 Two-electron integral symmetry is turned on.
 One-electron integrals computed using PRISM.
 NBasis=    97 RedAO= T EigKep=  1.27D-02  NBF=    97
 NBsUse=    97 1.00D-06 EigRej= -1.00D+00 NBFU=    97
 Initial guess from the checkpoint file:  "H2ClPO4-A.chk"
 B after Tr=     0.000000    0.000000    0.000000
         Rot=    0.995253   -0.096911   -0.006757   -0.005860 Ang= -11.17 deg.
 ExpMin= 6.85D-02 ExpMax= 1.06D+05 ExpMxC= 3.62D+03 IAcc=2 IRadAn=         4 AccDes= 0.00D+00
 Harris functional with IExCor=  402 and IRadAn=       4 diagonalized for initial guess.
 HarFok:  IExCor=  402 AccDes= 0.00D+00 IRadAn=         4 IDoV= 1 UseB2=F ITyADJ=14
 ICtDFT=  3500011 ScaDFX=  1.000000  1.000000  1.000000  1.000000
 FoFCou: FMM=F IPFlag=           0 FMFlag=      100000 FMFlg1=           0
         NFxFlg=           0 DoJE=T BraDBF=F KetDBF=T FulRan=T
         wScrn=  0.000000 ICntrl=     500 IOpCl=  0 I1Cent=   200000004 NGrid=           0
         NMat0=    1 NMatS0=      1 NMatT0=    0 NMatD0=    1 NMtDS0=    0 NMtDT0=    0
 Petite list used in FoFCou.
 Keep R1 ints in memory in canonical form, NReq=12265084.
 Requested convergence on RMS density matrix=1.00D-08 within 128 cycles.
 Requested convergence on MAX density matrix=1.00D-06.
 Requested convergence on             energy=1.00D-06.
 No special actions if energy rises.
 Integral accuracy reduced to 1.0D-05 until final iterations.
 Initial convergence to 1.0D-05 achieved.  Increase integral accuracy.
 SCF Done:  E(RB3LYP) =  -1103.05360188     A.U. after   16 cycles
            NFock= 16  Conv=0.23D-08     -V/T= 2.0016
 Calling FoFJK, ICntrl=      2127 FMM=F ISym2X=0 I1Cent= 0 IOpClX= 0 NMat=1 NMatS=1 NMatT=0.
 ***** Axes restored to original set *****
 -------------------------------------------------------------------
 Center     Atomic                   Forces (Hartrees/Bohr)
 Number     Number              X              Y              Z
 -------------------------------------------------------------------
      1       15          -0.048345549   -0.047875102   -0.016254632
      2        8           0.010782237   -0.027179652   -0.013292821
      3        8           0.003300898    0.033247089   -0.023261363
      4        1           0.001089300    0.000372873    0.000415112
      5        8           0.004169296    0.028747928    0.048035022
      6        8           0.007167910    0.001421995    0.000695836
      7       17           0.021835908    0.011264869    0.003662845
 -------------------------------------------------------------------
 Cartesian Forces:  Max     0.048345549 RMS     0.023305700

 GradGradGradGradGradGradGradGradGradGradGradGradGradGradGradGradGradGrad
 Berny optimization.
 Using GEDIIS/GDIIS optimizer.
 FormGI is forming the generalized inverse of G from B-inverse, IUseBI=4.
 Internal  Forces:  Max     0.055314145 RMS     0.018934615
 Search for a local minimum.
 Step number   2 out of a maximum of   30
 All quantities printed in internal units (Hartrees-Bohrs-Radians)
 Mixed Optimization -- RFO/linear search
 Update second derivatives using D2CorX and points    1    2
 DE= -3.88D-02 DEPred=-3.80D-02 R= 1.02D+00
 TightC=F SS=  1.41D+00  RLast= 3.37D-01 DXNew= 5.0454D-01 1.0114D+00
 Trust test= 1.02D+00 RLast= 3.37D-01 DXMaxT set to 5.05D-01
 The second derivative matrix:
                          R1        R2        R3        R4        R5
           R1           0.40728
           R2          -0.03328   0.48566
           R3          -0.05197  -0.05466   0.79454
           R4           0.00596   0.01002   0.01232   0.51889
           R5          -0.01484  -0.00932  -0.02092   0.01142   0.32993
           R6           0.00024   0.00163   0.00127   0.00167   0.00342
           A1           0.00871   0.01006   0.01515  -0.00094   0.00567
           A2           0.00746   0.00849   0.01289  -0.00097   0.00454
           A3          -0.00188  -0.00154  -0.00287   0.00099   0.00029
           A4           0.01519   0.01747   0.02637  -0.00173   0.00971
           A5          -0.01268  -0.01266  -0.02081   0.00386  -0.00347
           A6          -0.01342  -0.01631  -0.02384   0.00041  -0.01071
           A7           0.00385   0.00990   0.01011   0.00643   0.01564
           A8           0.00446   0.00926   0.01032   0.00469   0.01281
           D1          -0.01197  -0.01875  -0.02388  -0.00490  -0.01966
           D2           0.00848   0.01337   0.01698   0.00357   0.01412
           D3           0.00390   0.00596   0.00769   0.00140   0.00604
           D4           0.00830   0.01309   0.01662   0.00350   0.01384
           D5          -0.01021  -0.01608  -0.02043  -0.00430  -0.01699
           D6           0.00115   0.00199   0.00241   0.00071   0.00235
                          R6        A1        A2        A3        A4
           R6           0.54594
           A1           0.00022   0.24765
           A2           0.00013  -0.00204   0.24824
           A3           0.00026   0.00064   0.00053   0.24997
           A4           0.00036  -0.00411  -0.00357   0.00110   0.24281
           A5           0.00064   0.00384   0.00324  -0.00058   0.00667
           A6          -0.00074   0.00344   0.00303  -0.00113   0.00604
           A7           0.00275   0.00012  -0.00016   0.00125   0.00007
           A8           0.00211  -0.00032  -0.00048   0.00106  -0.00068
           D1          -0.00270   0.00217   0.00213  -0.00175   0.00394
           D2           0.00195  -0.00152  -0.00150   0.00126  -0.00276
           D3           0.00081  -0.00074  -0.00072   0.00054  -0.00134
           D4           0.00191  -0.00149  -0.00147   0.00123  -0.00270
           D5          -0.00235   0.00183   0.00181  -0.00151   0.00332
           D6           0.00035  -0.00017  -0.00018   0.00020  -0.00031
                          A5        A6        A7        A8        D1
           A5           0.24519
           A6          -0.00624   0.24521
           A7           0.00384  -0.00186   0.26110
           A8           0.00359  -0.00079   0.00840   0.16629
           D1          -0.00722  -0.00167  -0.01016  -0.00728   0.03557
           D2           0.00515   0.00114   0.00736   0.00529  -0.00517
           D3           0.00229   0.00064   0.00300   0.00213  -0.00199
           D4           0.00504   0.00111   0.00721   0.00518  -0.00507
           D5          -0.00619  -0.00137  -0.00885  -0.00636   0.00622
           D6           0.00077   0.00004   0.00136   0.00100  -0.00107
                          D2        D3        D4        D5        D6
           D2           0.03228
           D3           0.00146   0.02905
           D4           0.00371   0.00143   0.03823
           D5          -0.00455  -0.00176  -0.00446   0.04006
           D6           0.00078   0.00031   0.00076  -0.00094   0.03474
 ITU=  1  0
 Use linear search instead of GDIIS.
     Eigenvalues ---    0.02849   0.03458   0.14686   0.16442   0.16687
     Eigenvalues ---    0.18007   0.21181   0.24987   0.25720   0.32987
     Eigenvalues ---    0.39121   0.49306   0.52277   0.54635   0.81056
 RFO step:  Lambda=-4.20790391D-03 EMin= 2.84948109D-02
 Quartic linear search produced a step of  0.87285.
 Iteration  1 RMS(Cart)=  0.08105809 RMS(Int)=  0.00542585
 Iteration  2 RMS(Cart)=  0.00515510 RMS(Int)=  0.00387682
 Iteration  3 RMS(Cart)=  0.00004955 RMS(Int)=  0.00387674
 Iteration  4 RMS(Cart)=  0.00000039 RMS(Int)=  0.00387674
 Variable       Old X    -DE/DX   Delta X   Delta X   Delta X     New X
                                 (Linear)    (Quad)   (Total)
    R1        3.21468   0.03752   0.09658   0.04414   0.14072   3.35540
    R2        3.13859   0.03998   0.10614   0.01736   0.12351   3.26209
    R3        2.87558   0.05531   0.08784   0.01361   0.10145   2.97704
    R4        3.02752  -0.00584   0.00636  -0.02858  -0.02221   3.00531
    R5        3.42905   0.02481   0.13266  -0.01585   0.11682   3.54587
    R6        1.83119   0.00012   0.00755  -0.00851  -0.00097   1.83023
    A1        1.74841  -0.00338  -0.04027  -0.00657  -0.05172   1.69669
    A2        2.00246  -0.00012  -0.03621   0.01877  -0.02663   1.97583
    A3        1.71135  -0.00244   0.01687  -0.02357  -0.00636   1.70499
    A4        1.95252  -0.01129  -0.07115  -0.02948  -0.10686   1.84566
    A5        1.87980   0.00895   0.08442  -0.00370   0.08037   1.96017
    A6        2.12151   0.00772   0.05134   0.03847   0.09058   2.21209
    A7        2.08663   0.00014   0.05301  -0.06289  -0.00988   2.07675
    A8        2.01152  -0.00017   0.05134  -0.06502  -0.01368   1.99784
    D1        1.22940  -0.00824  -0.07657  -0.02276  -0.09613   1.13328
    D2       -0.86428   0.00750   0.06342   0.00786   0.06713  -0.79714
    D3       -3.13879  -0.00026   0.00746  -0.03371  -0.02532   3.11908
    D4       -2.46292   0.00260   0.05147   0.01587   0.05947  -2.40344
    D5       -0.33342  -0.00475  -0.06259   0.02040  -0.03428  -0.36770
    D6        2.04127   0.00421   0.02409   0.04463   0.06867   2.10994
         Item               Value     Threshold  Converged?
 Maximum Force            0.055314     0.000450     NO 
 RMS     Force            0.018935     0.000300     NO 
 Maximum Displacement     0.157274     0.001800     NO 
 RMS     Displacement     0.082141     0.001200     NO 
 Predicted change in Energy=-8.586408D-03
 GradGradGradGradGradGradGradGradGradGradGradGradGradGradGradGradGradGrad

                          Input orientation:                          
 ---------------------------------------------------------------------
 Center     Atomic      Atomic             Coordinates (Angstroms)
 Number     Number       Type             X           Y           Z
 ---------------------------------------------------------------------
      1         15           0       -0.147640    0.436009    0.000633
      2          8           0        1.379947   -0.359700   -0.430737
      3          8           0       -0.062789    1.711472   -1.159474
      4          1           0       -0.325194    2.580014   -0.820652
      5          8           0       -0.105791    1.137139    1.410771
      6          8           0       -1.130147   -0.729040   -0.453815
      7         17           0        2.992798    0.559793   -0.158524
 ---------------------------------------------------------------------
                    Distance matrix (angstroms):
                    1          2          3          4          5
     1  P    0.000000
     2  O    1.775601   0.000000
     3  O    1.726225   2.627223   0.000000
     4  H    2.302779   3.420740   0.968515   0.000000
     5  O    1.575381   2.799839   2.633983   2.666323   0.000000
     6  O    1.590340   2.537226   2.755596   3.425253   2.829949
     7  Cl   3.146904   1.876394   3.415388   3.940657   3.520975
                    6          7
     6  O    0.000000
     7  Cl   4.329775   0.000000
 Stoichiometry    ClHO4P(1-)
 Framework group  C1[X(ClHO4P)]
 Deg. of freedom    15
 Full point group                 C1      NOp   1
 Largest Abelian subgroup         C1      NOp   1
 Largest concise Abelian subgroup C1      NOp   1
                         Standard orientation:                         
 ---------------------------------------------------------------------
 Center     Atomic      Atomic             Coordinates (Angstroms)
 Number     Number       Type             X           Y           Z
 ---------------------------------------------------------------------
      1         15           0       -0.905572    0.020211   -0.118120
      2          8           0        0.609686    0.918452    0.105296
      3          8           0       -0.760089   -0.998395    1.267928
      4          1           0       -1.006881   -1.922280    1.114461
      5          8           0       -0.877328   -0.944954   -1.362902
      6          8           0       -1.908195    1.230563    0.124730
      7         17           0        2.239875   -0.001542   -0.024887
 ---------------------------------------------------------------------
 Rotational constants (GHZ):      3.9125506      1.4657079      1.4056448
 Standard basis: 6-311G (5D, 7F)
 There are    97 symmetry adapted cartesian basis functions of A   symmetry.
 There are    97 symmetry adapted basis functions of A   symmetry.
    97 basis functions,   192 primitive gaussians,    97 cartesian basis functions
    33 alpha electrons       33 beta electrons
       nuclear repulsion energy       381.7684718803 Hartrees.



 Warning!  P  atom    1 may be hypervalent but has no d functions.



 NAtoms=    7 NActive=    7 NUniq=    7 SFac= 1.00D+00 NAtFMM=   60 NAOKFM=F Big=F
 Integral buffers will be    131072 words long.
 Raffenetti 2 integral format.
 Two-electron integral symmetry is turned on.
 One-electron integrals computed using PRISM.
 NBasis=    97 RedAO= T EigKep=  1.41D-02  NBF=    97
 NBsUse=    97 1.00D-06 EigRej= -1.00D+00 NBFU=    97
 Initial guess from the checkpoint file:  "H2ClPO4-A.chk"
 B after Tr=     0.000000    0.000000    0.000000
         Rot=    0.999446    0.031023   -0.007428   -0.009510 Ang=   3.82 deg.
 ExpMin= 6.85D-02 ExpMax= 1.06D+05 ExpMxC= 3.62D+03 IAcc=2 IRadAn=         4 AccDes= 0.00D+00
 Harris functional with IExCor=  402 and IRadAn=       4 diagonalized for initial guess.
 HarFok:  IExCor=  402 AccDes= 0.00D+00 IRadAn=         4 IDoV= 1 UseB2=F ITyADJ=14
 ICtDFT=  3500011 ScaDFX=  1.000000  1.000000  1.000000  1.000000
 FoFCou: FMM=F IPFlag=           0 FMFlag=      100000 FMFlg1=           0
         NFxFlg=           0 DoJE=T BraDBF=F KetDBF=T FulRan=T
         wScrn=  0.000000 ICntrl=     500 IOpCl=  0 I1Cent=   200000004 NGrid=           0
         NMat0=    1 NMatS0=      1 NMatT0=    0 NMatD0=    1 NMtDS0=    0 NMtDT0=    0
 Petite list used in FoFCou.
 Keep R1 ints in memory in canonical form, NReq=12265084.
 Requested convergence on RMS density matrix=1.00D-08 within 128 cycles.
 Requested convergence on MAX density matrix=1.00D-06.
 Requested convergence on             energy=1.00D-06.
 No special actions if energy rises.
 Integral accuracy reduced to 1.0D-05 until final iterations.
 Initial convergence to 1.0D-05 achieved.  Increase integral accuracy.
 SCF Done:  E(RB3LYP) =  -1103.06570124     A.U. after   16 cycles
            NFock= 16  Conv=0.40D-08     -V/T= 2.0020
 Calling FoFJK, ICntrl=      2127 FMM=F ISym2X=0 I1Cent= 0 IOpClX= 0 NMat=1 NMatS=1 NMatT=0.
 ***** Axes restored to original set *****
 -------------------------------------------------------------------
 Center     Atomic                   Forces (Hartrees/Bohr)
 Number     Number              X              Y              Z
 -------------------------------------------------------------------
      1       15          -0.005093970    0.001828927    0.003145939
      2        8           0.010972408   -0.009344701   -0.003665384
      3        8          -0.002082520    0.003531421   -0.013759111
      4        1           0.000193758   -0.000241593    0.004920689
      5        8          -0.003324486    0.001572573    0.008592187
      6        8           0.002244688    0.002480606    0.000637557
      7       17          -0.002909878    0.000172768    0.000128123
 -------------------------------------------------------------------
 Cartesian Forces:  Max     0.013759111 RMS     0.005337360

 GradGradGradGradGradGradGradGradGradGradGradGradGradGradGradGradGradGrad
 Berny optimization.
 Using GEDIIS/GDIIS optimizer.
 FormGI is forming the generalized inverse of G from B-inverse, IUseBI=4.
 Internal  Forces:  Max     0.011930724 RMS     0.005008172
 Search for a local minimum.
 Step number   3 out of a maximum of   30
 All quantities printed in internal units (Hartrees-Bohrs-Radians)
 Mixed Optimization -- RFO/linear search
 Update second derivatives using D2CorX and points    2    3
 DE= -1.21D-02 DEPred=-8.59D-03 R= 1.41D+00
 TightC=F SS=  1.41D+00  RLast= 3.36D-01 DXNew= 8.4853D-01 1.0089D+00
 Trust test= 1.41D+00 RLast= 3.36D-01 DXMaxT set to 8.49D-01
 The second derivative matrix:
                          R1        R2        R3        R4        R5
           R1           0.37252
           R2          -0.06551   0.45733
           R3          -0.08659  -0.08256   0.77141
           R4           0.01092   0.01485   0.01789   0.51822
           R5          -0.03318  -0.02364  -0.03193   0.01444   0.32489
           R6          -0.00228  -0.00133  -0.00293   0.00194   0.00101
           A1           0.01043   0.01036   0.01335  -0.00138   0.00433
           A2           0.00696   0.00735   0.01059  -0.00100   0.00312
           A3           0.00176   0.00240   0.00229   0.00056   0.00320
           A4           0.02390   0.02402   0.03091  -0.00320   0.01167
           A5          -0.01857  -0.01660  -0.02256   0.00493  -0.00394
           A6          -0.02120  -0.02262  -0.02911   0.00166  -0.01323
           A7           0.00454   0.01177   0.01410   0.00652   0.01812
           A8           0.00828   0.01492   0.01984   0.00446   0.01848
           D1          -0.00446  -0.01290  -0.01941  -0.00614  -0.01762
           D2           0.00666   0.01357   0.02026   0.00412   0.01642
           D3          -0.00067   0.00099   0.00118   0.00195   0.00237
           D4          -0.00140   0.00352   0.00540   0.00480   0.00772
           D5          -0.00455  -0.01175  -0.01727  -0.00524  -0.01559
           D6           0.00076   0.00240   0.00409   0.00088   0.00346
                          R6        A1        A2        A3        A4
           R6           0.54600
           A1           0.00087   0.24865
           A2           0.00036  -0.00146   0.24851
           A3           0.00029  -0.00001   0.00033   0.24980
           A4           0.00160  -0.00326  -0.00279  -0.00037   0.24213
           A5          -0.00040   0.00286   0.00250   0.00059   0.00665
           A6          -0.00168   0.00306   0.00252   0.00002   0.00709
           A7           0.00230  -0.00094  -0.00068   0.00163  -0.00131
           A8           0.00154  -0.00228  -0.00134   0.00143  -0.00371
           D1          -0.00171   0.00273   0.00272  -0.00295   0.00315
           D2           0.00106  -0.00301  -0.00233   0.00214  -0.00416
           D3           0.00076   0.00009  -0.00047   0.00076   0.00052
           D4           0.00144  -0.00053  -0.00136   0.00204   0.00029
           D5          -0.00157   0.00232   0.00228  -0.00244   0.00281
           D6           0.00002  -0.00079  -0.00051   0.00052  -0.00097
                          A5        A6        A7        A8        D1
           A5           0.24569
           A6          -0.00666   0.24401
           A7           0.00516  -0.00098   0.26205
           A8           0.00631   0.00132   0.00999   0.16874
           D1          -0.00703  -0.00065  -0.01118  -0.00962   0.03474
           D2           0.00669   0.00184   0.00889   0.00805  -0.00613
           D3           0.00081  -0.00081   0.00252   0.00165  -0.00049
           D4           0.00283  -0.00140   0.00695   0.00547  -0.00257
           D5          -0.00613  -0.00064  -0.00969  -0.00822   0.00565
           D6           0.00145   0.00041   0.00197   0.00208  -0.00153
                          D2        D3        D4        D5        D6
           D2           0.03447
           D3           0.00034   0.02879
           D4           0.00251   0.00042   0.03573
           D5          -0.00536  -0.00059  -0.00254   0.03968
           D6           0.00169  -0.00010   0.00037  -0.00132   0.03512
 ITU=  1  1  0
 Use linear search instead of GDIIS.
     Eigenvalues ---    0.02847   0.03426   0.14082   0.15761   0.17129
     Eigenvalues ---    0.18334   0.20237   0.24663   0.25281   0.29430
     Eigenvalues ---    0.36766   0.48900   0.52307   0.54623   0.80541
 RFO step:  Lambda=-1.84022466D-03 EMin= 2.84655469D-02
 Quartic linear search produced a step of  0.08713.
 Iteration  1 RMS(Cart)=  0.02382377 RMS(Int)=  0.00080700
 Iteration  2 RMS(Cart)=  0.00065660 RMS(Int)=  0.00024353
 Iteration  3 RMS(Cart)=  0.00000052 RMS(Int)=  0.00024353
 Variable       Old X    -DE/DX   Delta X   Delta X   Delta X     New X
                                 (Linear)    (Quad)   (Total)
    R1        3.35540   0.01193   0.01226   0.03228   0.04454   3.39994
    R2        3.26209   0.00829   0.01076   0.02087   0.03164   3.29373
    R3        2.97704   0.00832   0.00884   0.01274   0.02158   2.99862
    R4        3.00531  -0.00340  -0.00194  -0.00618  -0.00811   2.99719
    R5        3.54587  -0.00244   0.01018  -0.00195   0.00823   3.55410
    R6        1.83023   0.00146  -0.00008   0.00340   0.00332   1.83355
    A1        1.69669   0.00454  -0.00451   0.02285   0.01803   1.71472
    A2        1.97583   0.00292  -0.00232   0.01719   0.01432   1.99015
    A3        1.70499  -0.00268  -0.00055  -0.01362  -0.01411   1.69087
    A4        1.84566   0.00294  -0.00931   0.01643   0.00667   1.85233
    A5        1.96017  -0.00319   0.00700  -0.01474  -0.00774   1.95243
    A6        2.21209  -0.00272   0.00789  -0.01795  -0.01001   2.20208
    A7        2.07675  -0.00563  -0.00086  -0.02038  -0.02124   2.05551
    A8        1.99784  -0.00818  -0.00119  -0.05072  -0.05192   1.94592
    D1        1.13328   0.00298  -0.00838   0.00986   0.00174   1.13502
    D2       -0.79714  -0.00350   0.00585  -0.02531  -0.01976  -0.81691
    D3        3.11908   0.00009  -0.00221  -0.00335  -0.00551   3.11357
    D4       -2.40344  -0.00160   0.00518   0.01337   0.01807  -2.38537
    D5       -0.36770   0.00410  -0.00299   0.04518   0.04264  -0.32506
    D6        2.10994   0.00001   0.00598   0.02135   0.02736   2.13730
         Item               Value     Threshold  Converged?
 Maximum Force            0.011931     0.000450     NO 
 RMS     Force            0.005008     0.000300     NO 
 Maximum Displacement     0.049552     0.001800     NO 
 RMS     Displacement     0.023731     0.001200     NO 
 Predicted change in Energy=-9.907976D-04
 GradGradGradGradGradGradGradGradGradGradGradGradGradGradGradGradGradGrad

                          Input orientation:                          
 ---------------------------------------------------------------------
 Center     Atomic      Atomic             Coordinates (Angstroms)
 Number     Number       Type             X           Y           Z
 ---------------------------------------------------------------------
      1         15           0       -0.144439    0.442481   -0.002776
      2          8           0        1.394057   -0.385922   -0.431478
      3          8           0       -0.076664    1.722486   -1.183845
      4          1           0       -0.329151    2.576108   -0.797833
      5          8           0       -0.122916    1.150982    1.416909
      6          8           0       -1.120126   -0.724544   -0.451813
      7         17           0        3.000423    0.554095   -0.160963
 ---------------------------------------------------------------------
                    Distance matrix (angstroms):
                    1          2          3          4          5
     1  P    0.000000
     2  O    1.799168   0.000000
     3  O    1.742966   2.678518   0.000000
     4  H    2.284425   3.446343   0.970270   0.000000
     5  O    1.586803   2.842501   2.663208   2.641704   0.000000
     6  O    1.586047   2.536965   2.759102   3.411697   2.829160
     7  Cl   3.150815   1.880750   3.446721   3.947176   3.549817
                    6          7
     6  O    0.000000
     7  Cl   4.324168   0.000000
 Stoichiometry    ClHO4P(1-)
 Framework group  C1[X(ClHO4P)]
 Deg. of freedom    15
 Full point group                 C1      NOp   1
 Largest Abelian subgroup         C1      NOp   1
 Largest concise Abelian subgroup C1      NOp   1
                         Standard orientation:                         
 ---------------------------------------------------------------------
 Center     Atomic      Atomic             Coordinates (Angstroms)
 Number     Number       Type             X           Y           Z
 ---------------------------------------------------------------------
      1         15           0       -0.903736    0.024815   -0.117202
      2          8           0        0.631091    0.936785    0.105561
      3          8           0       -0.786611   -1.007352    1.282386
      4          1           0       -1.034532   -1.921452    1.071720
      5          8           0       -0.905189   -0.939575   -1.377318
      6          8           0       -1.887013    1.244676    0.129073
      7         17           0        2.245433   -0.019237   -0.025371
 ---------------------------------------------------------------------
 Rotational constants (GHZ):      3.8416547      1.4548123      1.3954282
 Standard basis: 6-311G (5D, 7F)
 There are    97 symmetry adapted cartesian basis functions of A   symmetry.
 There are    97 symmetry adapted basis functions of A   symmetry.
    97 basis functions,   192 primitive gaussians,    97 cartesian basis functions
    33 alpha electrons       33 beta electrons
       nuclear repulsion energy       379.7325610519 Hartrees.



 Warning!  P  atom    1 may be hypervalent but has no d functions.



 NAtoms=    7 NActive=    7 NUniq=    7 SFac= 1.00D+00 NAtFMM=   60 NAOKFM=F Big=F
 Integral buffers will be    131072 words long.
 Raffenetti 2 integral format.
 Two-electron integral symmetry is turned on.
 One-electron integrals computed using PRISM.
 NBasis=    97 RedAO= T EigKep=  1.45D-02  NBF=    97
 NBsUse=    97 1.00D-06 EigRej= -1.00D+00 NBFU=    97
 Initial guess from the checkpoint file:  "H2ClPO4-A.chk"
 B after Tr=     0.000000    0.000000    0.000000
         Rot=    0.999987   -0.001777   -0.000225    0.004694 Ang=  -0.58 deg.
 ExpMin= 6.85D-02 ExpMax= 1.06D+05 ExpMxC= 3.62D+03 IAcc=2 IRadAn=         4 AccDes= 0.00D+00
 Harris functional with IExCor=  402 and IRadAn=       4 diagonalized for initial guess.
 HarFok:  IExCor=  402 AccDes= 0.00D+00 IRadAn=         4 IDoV= 1 UseB2=F ITyADJ=14
 ICtDFT=  3500011 ScaDFX=  1.000000  1.000000  1.000000  1.000000
 FoFCou: FMM=F IPFlag=           0 FMFlag=      100000 FMFlg1=           0
         NFxFlg=           0 DoJE=T BraDBF=F KetDBF=T FulRan=T
         wScrn=  0.000000 ICntrl=     500 IOpCl=  0 I1Cent=   200000004 NGrid=           0
         NMat0=    1 NMatS0=      1 NMatT0=    0 NMatD0=    1 NMtDS0=    0 NMtDT0=    0
 Petite list used in FoFCou.
 Keep R1 ints in memory in canonical form, NReq=12265084.
 Requested convergence on RMS density matrix=1.00D-08 within 128 cycles.
 Requested convergence on MAX density matrix=1.00D-06.
 Requested convergence on             energy=1.00D-06.
 No special actions if energy rises.
 Integral accuracy reduced to 1.0D-05 until final iterations.
 Initial convergence to 1.0D-05 achieved.  Increase integral accuracy.
 SCF Done:  E(RB3LYP) =  -1103.06707167     A.U. after   14 cycles
            NFock= 14  Conv=0.71D-08     -V/T= 2.0020
 Calling FoFJK, ICntrl=      2127 FMM=F ISym2X=0 I1Cent= 0 IOpClX= 0 NMat=1 NMatS=1 NMatT=0.
 ***** Axes restored to original set *****
 -------------------------------------------------------------------
 Center     Atomic                   Forces (Hartrees/Bohr)
 Number     Number              X              Y              Z
 -------------------------------------------------------------------
      1       15          -0.002023997    0.002935571    0.005278832
      2        8           0.006483274   -0.002574396   -0.001104508
      3        8          -0.001630706   -0.000064419   -0.006553987
      4        1           0.000906834    0.000889992    0.003113253
      5        8          -0.001291196   -0.000804624   -0.000274767
      6        8           0.000366114    0.000301683   -0.000304758
      7       17          -0.002810323   -0.000683808   -0.000154065
 -------------------------------------------------------------------
 Cartesian Forces:  Max     0.006553987 RMS     0.002747143

 GradGradGradGradGradGradGradGradGradGradGradGradGradGradGradGradGradGrad
 Berny optimization.
 Using GEDIIS/GDIIS optimizer.
 FormGI is forming the generalized inverse of G from B-inverse, IUseBI=4.
 Internal  Forces:  Max     0.004968246 RMS     0.002004109
 Search for a local minimum.
 Step number   4 out of a maximum of   30
 All quantities printed in internal units (Hartrees-Bohrs-Radians)
 Mixed Optimization -- RFO/linear search
 Update second derivatives using D2CorX and points    2    3    4
 DE= -1.37D-03 DEPred=-9.91D-04 R= 1.38D+00
 TightC=F SS=  1.41D+00  RLast= 1.05D-01 DXNew= 1.4270D+00 3.1454D-01
 Trust test= 1.38D+00 RLast= 1.05D-01 DXMaxT set to 8.49D-01
 The second derivative matrix:
                          R1        R2        R3        R4        R5
           R1           0.33641
           R2          -0.08774   0.44495
           R3          -0.08679  -0.07548   0.81328
           R4           0.01460   0.01575   0.00957   0.51960
           R5          -0.01689  -0.00991  -0.01109   0.00880   0.32808
           R6          -0.01369  -0.01024  -0.01412   0.00535   0.00069
           A1          -0.00563  -0.00012   0.01061   0.00062   0.01000
           A2          -0.00903  -0.00368   0.00394   0.00187   0.00697
           A3           0.01027   0.00751   0.00120  -0.00001  -0.00108
           A4           0.00851   0.01300   0.02263  -0.00015   0.01429
           A5          -0.00209  -0.00471  -0.01298   0.00149  -0.00646
           A6          -0.00293  -0.00952  -0.01888  -0.00210  -0.01625
           A7           0.02352   0.02474   0.02118   0.00331   0.01320
           A8           0.03553   0.03352   0.02979  -0.00010   0.01130
           D1           0.00725  -0.00326  -0.00430  -0.01053  -0.01576
           D2          -0.00711   0.00201   0.00127   0.00951   0.01363
           D3           0.00347   0.00434   0.00592   0.00056   0.00280
           D4          -0.01516  -0.00795  -0.01278   0.00996   0.00519
           D5          -0.00150  -0.00859  -0.00900  -0.00735  -0.01313
           D6          -0.00901  -0.00522  -0.00568   0.00389   0.00319
                          R6        A1        A2        A3        A4
           R6           0.54536
           A1          -0.00355   0.24195
           A2          -0.00297  -0.00804   0.24251
           A3           0.00331   0.00371   0.00422   0.24789
           A4          -0.00113  -0.00932  -0.00820   0.00336   0.23744
           A5           0.00233   0.00937   0.00821  -0.00344   0.01160
           A6           0.00144   0.01034   0.00894  -0.00447   0.01270
           A7           0.00648   0.00687   0.00655  -0.00294   0.00523
           A8           0.00760   0.00894   0.00908  -0.00513   0.00571
           D1          -0.00207   0.00732   0.00569  -0.00627   0.00552
           D2           0.00181  -0.00832  -0.00563   0.00607  -0.00670
           D3           0.00081   0.00168   0.00064  -0.00037   0.00141
           D4           0.00195  -0.00575  -0.00472   0.00588  -0.00227
           D5          -0.00285   0.00342   0.00245  -0.00350   0.00276
           D6          -0.00046  -0.00466  -0.00337   0.00315  -0.00336
                          A5        A6        A7        A8        D1
           A5           0.24050
           A6          -0.01254   0.23737
           A7          -0.00176  -0.00875   0.25338
           A8          -0.00369  -0.00990  -0.00250   0.15075
           D1          -0.00924  -0.00318  -0.01507  -0.01527   0.03675
           D2           0.00900   0.00452   0.01324   0.01440  -0.00892
           D3          -0.00005  -0.00180   0.00109  -0.00042  -0.00008
           D4           0.00521   0.00136   0.01134   0.01186  -0.00492
           D5          -0.00587  -0.00039  -0.01010  -0.00886   0.00796
           D6           0.00382   0.00310   0.00559   0.00732  -0.00203
                          D2        D3        D4        D5        D6
           D2           0.03828
           D3          -0.00027   0.02885
           D4           0.00578  -0.00008   0.03855
           D5          -0.00830   0.00004  -0.00519   0.04131
           D6           0.00254  -0.00010   0.00098  -0.00255   0.03480
 ITU=  1  1  1  0
 Use linear search instead of GDIIS.
     Eigenvalues ---    0.02791   0.02986   0.12183   0.15618   0.16500
     Eigenvalues ---    0.17817   0.20588   0.23415   0.25078   0.30561
     Eigenvalues ---    0.33474   0.49168   0.52324   0.54744   0.84008
 RFO step:  Lambda=-2.16602127D-04 EMin= 2.79050152D-02
 Quartic linear search produced a step of  0.58131.
 Iteration  1 RMS(Cart)=  0.02087743 RMS(Int)=  0.00086583
 Iteration  2 RMS(Cart)=  0.00072599 RMS(Int)=  0.00006007
 Iteration  3 RMS(Cart)=  0.00000071 RMS(Int)=  0.00006006
 Variable       Old X    -DE/DX   Delta X   Delta X   Delta X     New X
                                 (Linear)    (Quad)   (Total)
    R1        3.39994   0.00497   0.02589   0.00609   0.03198   3.43191
    R2        3.29373   0.00293   0.01839   0.00270   0.02109   3.31481
    R3        2.99862  -0.00061   0.01255  -0.00438   0.00816   3.00679
    R4        2.99719  -0.00037  -0.00472   0.00210  -0.00262   2.99458
    R5        3.55410  -0.00282   0.00479  -0.00785  -0.00306   3.55104
    R6        1.83355   0.00179   0.00193   0.00394   0.00587   1.83942
    A1        1.71472   0.00107   0.01048  -0.00335   0.00706   1.72178
    A2        1.99015   0.00083   0.00832  -0.00147   0.00676   1.99690
    A3        1.69087  -0.00036  -0.00820   0.00425  -0.00393   1.68694
    A4        1.85233   0.00080   0.00388  -0.00317   0.00056   1.85289
    A5        1.95243  -0.00127  -0.00450  -0.00065  -0.00514   1.94729
    A6        2.20208  -0.00066  -0.00582   0.00325  -0.00258   2.19950
    A7        2.05551  -0.00280  -0.01235  -0.00565  -0.01800   2.03752
    A8        1.94592  -0.00407  -0.03018  -0.01343  -0.04361   1.90232
    D1        1.13502   0.00091   0.00101  -0.00280  -0.00167   1.13335
    D2       -0.81691  -0.00086  -0.01149   0.00312  -0.00848  -0.82539
    D3        3.11357  -0.00027  -0.00320  -0.00323  -0.00644   3.10713
    D4       -2.38537   0.00043   0.01051   0.03554   0.04597  -2.33940
    D5       -0.32506   0.00203   0.02479   0.03157   0.05641  -0.26865
    D6        2.13730   0.00065   0.01591   0.03247   0.04840   2.18570
         Item               Value     Threshold  Converged?
 Maximum Force            0.004968     0.000450     NO 
 RMS     Force            0.002004     0.000300     NO 
 Maximum Displacement     0.048147     0.001800     NO 
 RMS     Displacement     0.021039     0.001200     NO 
 Predicted change in Energy=-3.439506D-04
 GradGradGradGradGradGradGradGradGradGradGradGradGradGradGradGradGradGrad

                          Input orientation:                          
 ---------------------------------------------------------------------
 Center     Atomic      Atomic             Coordinates (Angstroms)
 Number     Number       Type             X           Y           Z
 ---------------------------------------------------------------------
      1         15           0       -0.146539    0.442756   -0.004996
      2          8           0        1.403961   -0.400844   -0.432168
      3          8           0       -0.088595    1.723477   -1.202221
      4          1           0       -0.306731    2.569109   -0.772354
      5          8           0       -0.134440    1.162185    1.414140
      6          8           0       -1.119964   -0.726211   -0.448970
      7         17           0        2.993491    0.565214   -0.165229
 ---------------------------------------------------------------------
                    Distance matrix (angstroms):
                    1          2          3          4          5
     1  P    0.000000
     2  O    1.816091   0.000000
     3  O    1.754124   2.708033   0.000000
     4  H    2.266248   3.444244   0.973377   0.000000
     5  O    1.591123   2.866808   2.676284   2.605740   0.000000
     6  O    1.584662   2.544866   2.762622   3.409554   2.829925
     7  Cl   3.146499   1.879130   3.451982   3.908409   3.554537
                    6          7
     6  O    0.000000
     7  Cl   4.320741   0.000000
 Stoichiometry    ClHO4P(1-)
 Framework group  C1[X(ClHO4P)]
 Deg. of freedom    15
 Full point group                 C1      NOp   1
 Largest Abelian subgroup         C1      NOp   1
 Largest concise Abelian subgroup C1      NOp   1
                         Standard orientation:                         
 ---------------------------------------------------------------------
 Center     Atomic      Atomic             Coordinates (Angstroms)
 Number     Number       Type             X           Y           Z
 ---------------------------------------------------------------------
      1         15           0       -0.902493    0.026424   -0.117536
      2          8           0        0.643836    0.953390    0.101065
      3          8           0       -0.792091   -1.007758    1.294991
      4          1           0       -1.006722   -1.921273    1.036367
      5          8           0       -0.914482   -0.944854   -1.377753
      6          8           0       -1.884009    1.245944    0.128533
      7         17           0        2.242241   -0.026403   -0.026354
 ---------------------------------------------------------------------
 Rotational constants (GHZ):      3.8071898      1.4534060      1.3932187
 Standard basis: 6-311G (5D, 7F)
 There are    97 symmetry adapted cartesian basis functions of A   symmetry.
 There are    97 symmetry adapted basis functions of A   symmetry.
    97 basis functions,   192 primitive gaussians,    97 cartesian basis functions
    33 alpha electrons       33 beta electrons
       nuclear repulsion energy       378.8433839931 Hartrees.



 Warning!  P  atom    1 may be hypervalent but has no d functions.



 NAtoms=    7 NActive=    7 NUniq=    7 SFac= 1.00D+00 NAtFMM=   60 NAOKFM=F Big=F
 Integral buffers will be    131072 words long.
 Raffenetti 2 integral format.
 Two-electron integral symmetry is turned on.
 One-electron integrals computed using PRISM.
 NBasis=    97 RedAO= T EigKep=  1.47D-02  NBF=    97
 NBsUse=    97 1.00D-06 EigRej= -1.00D+00 NBFU=    97
 Initial guess from the checkpoint file:  "H2ClPO4-A.chk"
 B after Tr=     0.000000    0.000000    0.000000
         Rot=    0.999999    0.001015   -0.000512    0.001045 Ang=   0.18 deg.
 ExpMin= 6.85D-02 ExpMax= 1.06D+05 ExpMxC= 3.62D+03 IAcc=2 IRadAn=         4 AccDes= 0.00D+00
 Harris functional with IExCor=  402 and IRadAn=       4 diagonalized for initial guess.
 HarFok:  IExCor=  402 AccDes= 0.00D+00 IRadAn=         4 IDoV= 1 UseB2=F ITyADJ=14
 ICtDFT=  3500011 ScaDFX=  1.000000  1.000000  1.000000  1.000000
 FoFCou: FMM=F IPFlag=           0 FMFlag=      100000 FMFlg1=           0
         NFxFlg=           0 DoJE=T BraDBF=F KetDBF=T FulRan=T
         wScrn=  0.000000 ICntrl=     500 IOpCl=  0 I1Cent=   200000004 NGrid=           0
         NMat0=    1 NMatS0=      1 NMatT0=    0 NMatD0=    1 NMtDS0=    0 NMtDT0=    0
 Petite list used in FoFCou.
 Keep R1 ints in memory in canonical form, NReq=12265084.
 Requested convergence on RMS density matrix=1.00D-08 within 128 cycles.
 Requested convergence on MAX density matrix=1.00D-06.
 Requested convergence on             energy=1.00D-06.
 No special actions if energy rises.
 Integral accuracy reduced to 1.0D-05 until final iterations.
 Initial convergence to 1.0D-05 achieved.  Increase integral accuracy.
 SCF Done:  E(RB3LYP) =  -1103.06749643     A.U. after   14 cycles
            NFock= 14  Conv=0.66D-08     -V/T= 2.0021
 Calling FoFJK, ICntrl=      2127 FMM=F ISym2X=0 I1Cent= 0 IOpClX= 0 NMat=1 NMatS=1 NMatT=0.
 ***** Axes restored to original set *****
 -------------------------------------------------------------------
 Center     Atomic                   Forces (Hartrees/Bohr)
 Number     Number              X              Y              Z
 -------------------------------------------------------------------
      1       15          -0.000785413    0.001640126    0.003660322
      2        8           0.003048879    0.000787410    0.000541368
      3        8          -0.002091729   -0.000378319   -0.000873834
      4        1           0.001657596    0.000615484    0.000650246
      5        8          -0.000088790   -0.001556897   -0.003429282
      6        8           0.000056513   -0.000216677   -0.000327948
      7       17          -0.001797055   -0.000891127   -0.000220874
 -------------------------------------------------------------------
 Cartesian Forces:  Max     0.003660322 RMS     0.001606040

 GradGradGradGradGradGradGradGradGradGradGradGradGradGradGradGradGradGrad
 Berny optimization.
 Using GEDIIS/GDIIS optimizer.
 FormGI is forming the generalized inverse of G from B-inverse, IUseBI=4.
 Internal  Forces:  Max     0.003747950 RMS     0.001113102
 Search for a local minimum.
 Step number   5 out of a maximum of   30
 All quantities printed in internal units (Hartrees-Bohrs-Radians)
 Mixed Optimization -- RFO/linear search
 Update second derivatives using D2CorX and points    2    3    4    5
 DE= -4.25D-04 DEPred=-3.44D-04 R= 1.23D+00
 TightC=F SS=  1.41D+00  RLast= 1.08D-01 DXNew= 1.4270D+00 3.2462D-01
 Trust test= 1.23D+00 RLast= 1.08D-01 DXMaxT set to 8.49D-01
 The second derivative matrix:
                          R1        R2        R3        R4        R5
           R1           0.32991
           R2          -0.09039   0.44299
           R3          -0.05855  -0.05939   0.84173
           R4           0.01301   0.01485   0.00318   0.52068
           R5          -0.00335  -0.00426  -0.01917   0.00804   0.31507
           R6          -0.01540  -0.00956  -0.00331   0.00483   0.00737
           A1          -0.00292   0.00368   0.02486  -0.00112   0.01583
           A2           0.00276   0.00688   0.02609  -0.00135   0.01242
           A3           0.00102   0.00009  -0.01300   0.00240  -0.00308
           A4           0.02014   0.02405   0.04515  -0.00358   0.02067
           A5          -0.00595  -0.01018  -0.03098   0.00358  -0.01429
           A6          -0.01437  -0.02046  -0.04013   0.00099  -0.02249
           A7           0.02344   0.02196  -0.00198   0.00553   0.00257
           A8           0.03094   0.02617  -0.00889   0.00411  -0.00415
           D1           0.00275  -0.00720  -0.00050  -0.01143  -0.01473
           D2          -0.00036   0.00796  -0.00097   0.01019   0.01292
           D3           0.00053   0.00162   0.00217   0.00102   0.00174
           D4          -0.02159  -0.01118  -0.02074   0.01234   0.00768
           D5          -0.01305  -0.01676  -0.00670  -0.00703  -0.00870
           D6          -0.01488  -0.00855  -0.00858   0.00532   0.00598
                          R6        A1        A2        A3        A4
           R6           0.54384
           A1          -0.00446   0.24182
           A2          -0.00162  -0.00647   0.24689
           A3           0.00169   0.00174   0.00042   0.25088
           A4          -0.00067  -0.00885  -0.00594   0.00069   0.23732
           A5           0.00358   0.01009   0.00698  -0.00145   0.01206
           A6           0.00087   0.01009   0.00688  -0.00207   0.01311
           A7           0.00835   0.00662   0.00202   0.00154   0.00191
           A8           0.00930   0.00754   0.00082   0.00260  -0.00037
           D1          -0.00326   0.00877   0.00795  -0.00836   0.00910
           D2           0.00331  -0.00996  -0.00813   0.00832  -0.01101
           D3           0.00044   0.00174   0.00033  -0.00006   0.00176
           D4          -0.00010  -0.00965  -0.00973   0.00945  -0.00792
           D5          -0.00605   0.00304   0.00343  -0.00492   0.00514
           D6          -0.00213  -0.00677  -0.00530   0.00442  -0.00546
                          A5        A6        A7        A8        D1
           A5           0.23887
           A6          -0.01316   0.23681
           A7          -0.00194  -0.00573   0.25299
           A8          -0.00280  -0.00436  -0.00073   0.15714
           D1          -0.01083  -0.00598  -0.01538  -0.01666   0.03905
           D2           0.01092   0.00795   0.01318   0.01530  -0.01113
           D3          -0.00024  -0.00206   0.00176   0.00070  -0.00015
           D4           0.00974   0.00616   0.01745   0.02197  -0.00876
           D5          -0.00543  -0.00228  -0.00631  -0.00426   0.00781
           D6           0.00617   0.00475   0.00965   0.01353  -0.00482
                          D2        D3        D4        D5        D6
           D2           0.04029
           D3          -0.00011   0.02886
           D4           0.00972   0.00027   0.04287
           D5          -0.00768  -0.00019  -0.00803   0.03776
           D6           0.00565  -0.00018   0.00291  -0.00563   0.03521
 ITU=  1  1  1  1  0
 Use linear search instead of GDIIS.
     Eigenvalues ---    0.01876   0.02857   0.13166   0.15715   0.17166
     Eigenvalues ---    0.18610   0.20986   0.24065   0.25329   0.30466
     Eigenvalues ---    0.31762   0.49106   0.52387   0.54672   0.86081
 RFO step:  Lambda=-1.59762043D-04 EMin= 1.87598498D-02
 Quartic linear search produced a step of  0.40259.
 Iteration  1 RMS(Cart)=  0.01844673 RMS(Int)=  0.00064583
 Iteration  2 RMS(Cart)=  0.00054572 RMS(Int)=  0.00000645
 Iteration  3 RMS(Cart)=  0.00000041 RMS(Int)=  0.00000643
 Variable       Old X    -DE/DX   Delta X   Delta X   Delta X     New X
                                 (Linear)    (Quad)   (Total)
    R1        3.43191   0.00107   0.01287   0.00421   0.01709   3.44900
    R2        3.31481   0.00033   0.00849   0.00195   0.01044   3.32526
    R3        3.00679  -0.00375   0.00329  -0.00381  -0.00052   3.00626
    R4        2.99458   0.00021  -0.00105  -0.00007  -0.00113   2.99345
    R5        3.55104  -0.00206  -0.00123  -0.00619  -0.00743   3.54361
    R6        1.83942   0.00046   0.00236   0.00062   0.00298   1.84240
    A1        1.72178   0.00037   0.00284   0.00264   0.00548   1.72726
    A2        1.99690  -0.00061   0.00272  -0.00365  -0.00093   1.99597
    A3        1.68694   0.00048  -0.00158   0.00276   0.00118   1.68813
    A4        1.85289  -0.00031   0.00023  -0.00233  -0.00212   1.85077
    A5        1.94729  -0.00013  -0.00207  -0.00010  -0.00217   1.94512
    A6        2.19950   0.00026  -0.00104   0.00132   0.00028   2.19978
    A7        2.03752  -0.00040  -0.00724  -0.00159  -0.00883   2.02869
    A8        1.90232  -0.00015  -0.01756  -0.00033  -0.01789   1.88443
    D1        1.13335  -0.00014  -0.00067  -0.00144  -0.00210   1.13124
    D2       -0.82539   0.00022  -0.00342   0.00107  -0.00236  -0.82775
    D3        3.10713  -0.00010  -0.00259  -0.00044  -0.00302   3.10410
    D4       -2.33940   0.00151   0.01851   0.03893   0.05743  -2.28196
    D5       -0.26865   0.00090   0.02271   0.03526   0.05797  -0.21068
    D6        2.18570   0.00085   0.01948   0.03478   0.05428   2.23998
         Item               Value     Threshold  Converged?
 Maximum Force            0.003748     0.000450     NO 
 RMS     Force            0.001113     0.000300     NO 
 Maximum Displacement     0.057251     0.001800     NO 
 RMS     Displacement     0.018528     0.001200     NO 
 Predicted change in Energy=-1.182596D-04
 GradGradGradGradGradGradGradGradGradGradGradGradGradGradGradGradGradGrad

                          Input orientation:                          
 ---------------------------------------------------------------------
 Center     Atomic      Atomic             Coordinates (Angstroms)
 Number     Number       Type             X           Y           Z
 ---------------------------------------------------------------------
      1         15           0       -0.150729    0.440014   -0.006925
      2          8           0        1.409836   -0.405914   -0.431380
      3          8           0       -0.104063    1.722026   -1.211348
      4          1           0       -0.276435    2.567518   -0.757513
      5          8           0       -0.139626    1.166034    1.408547
      6          8           0       -1.122129   -0.731802   -0.445667
      7         17           0        2.984330    0.577810   -0.167511
 ---------------------------------------------------------------------
                    Distance matrix (angstroms):
                    1          2          3          4          5
     1  P    0.000000
     2  O    1.825134   0.000000
     3  O    1.759650   2.725503   0.000000
     4  H    2.259526   3.433827   0.974954   0.000000
     5  O    1.590845   2.873531   2.678477   2.583542   0.000000
     6  O    1.584066   2.552891   2.764778   3.420228   2.829346
     7  Cl   3.142192   1.875199   3.454996   3.865182   3.548107
                    6          7
     6  O    0.000000
     7  Cl   4.319197   0.000000
 Stoichiometry    ClHO4P(1-)
 Framework group  C1[X(ClHO4P)]
 Deg. of freedom    15
 Full point group                 C1      NOp   1
 Largest Abelian subgroup         C1      NOp   1
 Largest concise Abelian subgroup C1      NOp   1
                         Standard orientation:                         
 ---------------------------------------------------------------------
 Center     Atomic      Atomic             Coordinates (Angstroms)
 Number     Number       Type             X           Y           Z
 ---------------------------------------------------------------------
      1         15           0       -0.901971    0.028106   -0.117744
      2          8           0        0.650658    0.961272    0.105102
      3          8           0       -0.797554   -1.018752    1.292771
      4          1           0       -0.963509   -1.934085    1.000950
      5          8           0       -0.911564   -0.937422   -1.382043
      6          8           0       -1.886446    1.243217    0.134406
      7         17           0        2.238372   -0.027884   -0.025686
 ---------------------------------------------------------------------
 Rotational constants (GHZ):      3.7961507      1.4546440      1.3935142
 Standard basis: 6-311G (5D, 7F)
 There are    97 symmetry adapted cartesian basis functions of A   symmetry.
 There are    97 symmetry adapted basis functions of A   symmetry.
    97 basis functions,   192 primitive gaussians,    97 cartesian basis functions
    33 alpha electrons       33 beta electrons
       nuclear repulsion energy       378.6178583357 Hartrees.



 Warning!  P  atom    1 may be hypervalent but has no d functions.



 NAtoms=    7 NActive=    7 NUniq=    7 SFac= 1.00D+00 NAtFMM=   60 NAOKFM=F Big=F
 Integral buffers will be    131072 words long.
 Raffenetti 2 integral format.
 Two-electron integral symmetry is turned on.
 One-electron integrals computed using PRISM.
 NBasis=    97 RedAO= T EigKep=  1.47D-02  NBF=    97
 NBsUse=    97 1.00D-06 EigRej= -1.00D+00 NBFU=    97
 Initial guess from the checkpoint file:  "H2ClPO4-A.chk"
 B after Tr=     0.000000    0.000000    0.000000
         Rot=    0.999995   -0.003014    0.000238   -0.000172 Ang=  -0.35 deg.
 ExpMin= 6.85D-02 ExpMax= 1.06D+05 ExpMxC= 3.62D+03 IAcc=2 IRadAn=         4 AccDes= 0.00D+00
 Harris functional with IExCor=  402 and IRadAn=       4 diagonalized for initial guess.
 HarFok:  IExCor=  402 AccDes= 0.00D+00 IRadAn=         4 IDoV= 1 UseB2=F ITyADJ=14
 ICtDFT=  3500011 ScaDFX=  1.000000  1.000000  1.000000  1.000000
 FoFCou: FMM=F IPFlag=           0 FMFlag=      100000 FMFlg1=           0
         NFxFlg=           0 DoJE=T BraDBF=F KetDBF=T FulRan=T
         wScrn=  0.000000 ICntrl=     500 IOpCl=  0 I1Cent=   200000004 NGrid=           0
         NMat0=    1 NMatS0=      1 NMatT0=    0 NMatD0=    1 NMtDS0=    0 NMtDT0=    0
 Petite list used in FoFCou.
 Keep R1 ints in memory in canonical form, NReq=12265084.
[...]
    92. RY*(  11) O   5                  0.00000    49.67975   
    93. RY*(  12) O   5                  0.00000     3.19264   
    94. RY*(  13) O   5                  0.00001     4.89113   
    95. RY*(   1) O   6                  0.00101     1.59774   
    96. RY*(   2) O   6                  0.00060     1.15758   
    97. RY*(   3) O   6                  0.00044     1.35722   
    98. RY*(   4) O   6                  0.00006     1.72785   
    99. RY*(   5) O   6                  0.00004     4.55173   
   100. RY*(   6) O   6                  0.00001     4.74317   
   101. RY*(   7) O   6                  0.00001     3.30833   
   102. RY*(   8) O   6                  0.00001     3.09762   
   103. RY*(   9) O   6                  0.00000    49.80642   
   104. RY*(  10) O   6                  0.00001     3.14739   
   105. RY*(  11) O   6                  0.00000     4.92185   
   106. RY*(  12) O   6                  0.00001     3.06800   
   107. RY*(  13) O   6                  0.00001     3.33853   
   108. RY*(   1)Cl   7                  0.00196     0.98091   
   109. RY*(   2)Cl   7                  0.00161     0.96998   
   110. RY*(   3)Cl   7                  0.00120     0.95702   
   111. RY*(   4)Cl   7                  0.00068     0.79604   
   112. RY*(   5)Cl   7                  0.00052     0.55274   
   113. RY*(   6)Cl   7                  0.00007     1.69209   
   114. RY*(   7)Cl   7                  0.00002     1.86856   
   115. RY*(   8)Cl   7                  0.00001     2.47626   
   116. RY*(   9)Cl   7                  0.00001     2.78350   
   117. RY*(  10)Cl   7                  0.00000    18.07050   
   118. RY*(  11)Cl   7                  0.00001     2.77761   
   119. RY*(  12)Cl   7                  0.00000    24.54740   
   120. RY*(  13)Cl   7                  0.00000   206.37898   
   121. RY*(  14)Cl   7                  0.00000    25.08135   
   122. RY*(  15)Cl   7                  0.00000     1.00964   
   123. RY*(  16)Cl   7                  0.00000    24.47873   
   124. RY*(  17)Cl   7                  0.00000     0.99590   
   125. BD*(   1) P   1 - O   2          0.29187     0.23905  35(g),127(g),126(g),42(g)
                                                    129(g),34(g),48(g)
   126. BD*(   1) P   1 - O   3          0.22962     0.29064  35(g),34(g),41(g),128(g)
                                                    125(g),127(g),130(g),77(v)
                                                    43(g),49(g)
   127. BD*(   1) P   1 - O   5          0.12056     0.43889  128(g),34(g),36(g),39(g)
                                                    40(g),125(g),126(g),44(g)
   128. BD*(   1) P   1 - O   6          0.11102     0.43697  127(g),36(g),34(g),39(g)
                                                    35(g),126(g),40(g),38(g)
   129. BD*(   1) O   2 -Cl   7          0.09282     0.05798   
   130. BD*(   1) O   3 - H   4          0.00446     0.54082   
       -------------------------------
              Total Lewis   64.92624  ( 98.3731%)
        Valence non-Lewis    0.85034  (  1.2884%)
        Rydberg non-Lewis    0.22342  (  0.3385%)
       -------------------------------
            Total unit  1   66.00000  (100.0000%)
           Charge unit  1   -1.00000
 1\1\GINC-BLADI36\SP\RB3LYP\6-311G(d,p)\Cl1H1O4P1(1-)\SARARIOP\21-Jun-2
 017\0\\# B3LYP/6-311G** geom=check guess=read pop=nboread\\Title Card 
 Required\\-1,1\P,0,-0.2010812737,0.421278886,0.001851815\O,0,1.4026882
 5,-0.371754358,-0.4220789741\O,0,-0.2487888586,1.6989217973,-1.1953150
 815\H,0,0.012337256,2.5394276636,-0.7784517283\O,0,-0.1540389649,1.128
 7783955,1.4192040847\O,0,-1.1368548344,-0.7692156629,-0.452513513\Cl,0
 ,2.9269222055,0.6882495386,-0.1844936028\\Version=AM64L-G09RevD.01\Sta
 te=1-A\HF=-1103.2601341\RMSD=9.244e-09\Dipole=1.1931079,1.1477044,-0.3
 486058\Quadrupole=-3.0902603,4.2916846,-1.2014243,-1.7392004,0.3652223
 ,-2.1568759\PG=C01 [X(Cl1H1O4P1)]\\@


 I DO NOT DEFINE TIME, SPACE, PLACE, AND MOTION, AS BEING WELL KNOWN TO ALL.
                                            -- NEWTON (1642-1726), PRINCIPIA
 Job cpu time:       0 days  0 hours  6 minutes 21.0 seconds.
 File lengths (MBytes):  RWF=      8 Int=      0 D2E=      0 Chk=      4 Scr=      1
 Normal termination of Gaussian 09 at Wed Jun 21 05:32:41 2017.
 Initial command:
 /usr/local/gaussian/gaussian09.d1/g09/l1.exe "/scratch/sarariop/H2ClPO4-A.com/Gau-24317.inp" -scrdir="/scratch/sarariop/H2ClPO4-A.com/"
 Default is to use a total of   8 processors:
                                8 via shared-memory
                                1 via Linda
 Entering Link 1 = /usr/local/gaussian/gaussian09.d1/g09/l1.exe PID=     25871.
  
 Copyright (c) 1988,1990,1992,1993,1995,1998,2003,2009,2013,
            Gaussian, Inc.  All Rights Reserved.
  
 This is part of the Gaussian(R) 09 program.  It is based on
 the Gaussian(R) 03 system (copyright 2003, Gaussian, Inc.),
 the Gaussian(R) 98 system (copyright 1998, Gaussian, Inc.),
 the Gaussian(R) 94 system (copyright 1995, Gaussian, Inc.),
 the Gaussian 92(TM) system (copyright 1992, Gaussian, Inc.),
 the Gaussian 90(TM) system (copyright 1990, Gaussian, Inc.),
 the Gaussian 88(TM) system (copyright 1988, Gaussian, Inc.),
 the Gaussian 86(TM) system (copyright 1986, Carnegie Mellon
 University), and the Gaussian 82(TM) system (copyright 1983,
 Carnegie Mellon University). Gaussian is a federally registered
 trademark of Gaussian, Inc.
  
 This software contains proprietary and confidential information,
 including trade secrets, belonging to Gaussian, Inc.
  
 This software is provided under written license and may be
 used, copied, transmitted, or stored only in accord with that
 written license.
  
 The following legend is applicable only to US Government
 contracts under FAR:
  
                    RESTRICTED RIGHTS LEGEND
  
 Use, reproduction and disclosure by the US Government is
 subject to restrictions as set forth in subparagraphs (a)
 and (c) of the Commercial Computer Software - Restricted
 Rights clause in FAR 52.227-19.
  
 Gaussian, Inc.
 340 Quinnipiac St., Bldg. 40, Wallingford CT 06492
  
  
 ---------------------------------------------------------------
 Warning -- This program may not be used in any manner that
 competes with the business of Gaussian, Inc. or will provide
 assistance to any competitor of Gaussian, Inc.  The licensee
 of this program is prohibited from giving any competitor of
 Gaussian, Inc. access to this program.  By using this program,
 the user acknowledges that Gaussian, Inc. is engaged in the
 business of creating and licensing software in the field of
 computational chemistry and represents and warrants to the
 licensee that it is not a competitor of Gaussian, Inc. and that
 it will not use this program in any manner prohibited above.
 ---------------------------------------------------------------
  

 Cite this work as:
 Gaussian 09, Revision D.01,
 M. J. Frisch, G. W. Trucks, H. B. Schlegel, G. E. Scuseria, 
 M. A. Robb, J. R. Cheeseman, G. Scalmani, V. Barone, B. Mennucci, 
 G. A. Petersson, H. Nakatsuji, M. Caricato, X. Li, H. P. Hratchian, 
 A. F. Izmaylov, J. Bloino, G. Zheng, J. L. Sonnenberg, M. Hada, 
 M. Ehara, K. Toyota, R. Fukuda, J. Hasegawa, M. Ishida, T. Nakajima, 
 Y. Honda, O. Kitao, H. Nakai, T. Vreven, J. A. Montgomery, Jr., 
 J. E. Peralta, F. Ogliaro, M. Bearpark, J. J. Heyd, E. Brothers, 
 K. N. Kudin, V. N. Staroverov, T. Keith, R. Kobayashi, J. Normand, 
 K. Raghavachari, A. Rendell, J. C. Burant, S. S. Iyengar, J. Tomasi, 
 M. Cossi, N. Rega, J. M. Millam, M. Klene, J. E. Knox, J. B. Cross, 
 V. Bakken, C. Adamo, J. Jaramillo, R. Gomperts, R. E. Stratmann, 
 O. Yazyev, A. J. Austin, R. Cammi, C. Pomelli, J. W. Ochterski, 
 R. L. Martin, K. Morokuma, V. G. Zakrzewski, G. A. Voth, 
 P. Salvador, J. J. Dannenberg, S. Dapprich, A. D. Daniels, 
 O. Farkas, J. B. Foresman, J. V. Ortiz, J. Cioslowski, 
 and D. J. Fox, Gaussian, Inc., Wallingford CT, 2013.
 
 ******************************************
 Gaussian 09:  AM64L-G09RevD.01 24-Apr-2013
                21-Jun-2017 
 ******************************************
 %chk=H2ClPO4-A.chk
 Default route:  MaxDisk=56GB
 -------------------------------------------------
 # B3LYP/6-311G** geom=check guess=read output=wfx
 -------------------------------------------------
 1/29=2,38=1/1;
 2/12=2,40=1/2;
 3/5=4,6=6,7=101,11=2,14=-4,16=1,25=1,30=1,74=-5,116=-2/1,2,3;
 4/5=1/1;
 5/5=2,38=6/2;
 6/7=2,8=2,9=2,10=2,28=1/1;
 99/5=1,6=200,9=1/99;
 -------------------
 Title Card Required
 -------------------
 Structure from the checkpoint file:  "H2ClPO4-A.chk"
 Charge = -1 Multiplicity = 1
 Redundant internal coordinates found in file.
 P,0,-0.2010812737,0.421278886,0.001851815
 O,0,1.40268825,-0.371754358,-0.4220789741
 O,0,-0.2487888586,1.6989217973,-1.1953150815
 H,0,0.012337256,2.5394276636,-0.7784517283
 O,0,-0.1540389649,1.1287783955,1.4192040847
 O,0,-1.1368548344,-0.7692156629,-0.452513513
 Cl,0,2.9269222055,0.6882495386,-0.1844936028
 Recover connectivity data from disk.
                          Input orientation:                          
 ---------------------------------------------------------------------
 Center     Atomic      Atomic             Coordinates (Angstroms)
 Number     Number       Type             X           Y           Z
 ---------------------------------------------------------------------
      1         15           0       -0.201081    0.421279    0.001852
      2          8           0        1.402688   -0.371754   -0.422079
      3          8           0       -0.248789    1.698922   -1.195315
      4          1           0        0.012337    2.539428   -0.778452
      5          8           0       -0.154039    1.128778    1.419204
      6          8           0       -1.136855   -0.769216   -0.452514
      7         17           0        2.926922    0.688250   -0.184494
 ---------------------------------------------------------------------
                    Distance matrix (angstroms):
                    1          2          3          4          5
     1  P    0.000000
     2  O    1.838667   0.000000
     3  O    1.751530   2.759161   0.000000
     4  H    2.267372   3.245775   0.973864   0.000000
     5  O    1.584820   2.839951   2.677639   2.616735   0.000000
     6  O    1.580948   2.570638   2.726191   3.517670   2.841062
     7  Cl   3.144901   1.871722   3.482579   3.503491   3.501176
                    6          7
     6  O    0.000000
     7  Cl   4.325543   0.000000
 Stoichiometry    ClHO4P(1-)
 Framework group  C1[X(ClHO4P)]
 Deg. of freedom    15
 Full point group                 C1      NOp   1
 Largest Abelian subgroup         C1      NOp   1
 Largest concise Abelian subgroup C1      NOp   1
                         Standard orientation:                         
 ---------------------------------------------------------------------
 Center     Atomic      Atomic             Coordinates (Angstroms)
 Number     Number       Type             X           Y           Z
 ---------------------------------------------------------------------
      1         15           0       -0.911614    0.017727   -0.124875
      2          8           0        0.643658    0.974521    0.090462
      3          8           0       -0.842117   -1.020789    1.283852
      4          1           0       -0.534029   -1.904964    1.016030
      5          8           0       -0.850579   -0.931787   -1.392295
      6          8           0       -1.915713    1.209497    0.141338
      7         17           0        2.230956   -0.012499   -0.007633
 ---------------------------------------------------------------------
 Rotational constants (GHZ):      3.8252454      1.4549206      1.3985712
 Standard basis: 6-311G(d,p) (5D, 7F)
 There are   136 symmetry adapted cartesian basis functions of A   symmetry.
 There are   130 symmetry adapted basis functions of A   symmetry.
   130 basis functions,   231 primitive gaussians,   136 cartesian basis functions
    33 alpha electrons       33 beta electrons
       nuclear repulsion energy       379.1501433357 Hartrees.
 NAtoms=    7 NActive=    7 NUniq=    7 SFac= 1.00D+00 NAtFMM=   60 NAOKFM=F Big=F
 Integral buffers will be    131072 words long.
 Raffenetti 2 integral format.
 Two-electron integral symmetry is turned on.
 One-electron integrals computed using PRISM.
 NBasis=   130 RedAO= T EigKep=  1.33D-02  NBF=   130
 NBsUse=   130 1.00D-06 EigRej= -1.00D+00 NBFU=   130
 Initial guess from the checkpoint file:  "H2ClPO4-A.chk"
 B after Tr=     0.000000    0.000000    0.000000
         Rot=    1.000000    0.000000    0.000000    0.000000 Ang=   0.00 deg.
 Keep R1 ints in memory in canonical form, NReq=37618612.
 Requested convergence on RMS density matrix=1.00D-08 within 128 cycles.
 Requested convergence on MAX density matrix=1.00D-06.
 Requested convergence on             energy=1.00D-06.
 No special actions if energy rises.
 SCF Done:  E(RB3LYP) =  -1103.26013407     A.U. after    1 cycles
            NFock=  1  Conv=0.57D-08     -V/T= 2.0027

 **********************************************************************

            Population analysis using the SCF density.

 **********************************************************************

 Orbital symmetries:
       Occupied  (A) (A) (A) (A) (A) (A) (A) (A) (A) (A) (A) (A)
                 (A) (A) (A) (A) (A) (A) (A) (A) (A) (A) (A) (A)
                 (A) (A) (A) (A) (A) (A) (A) (A) (A)
       Virtual   (A) (A) (A) (A) (A) (A) (A) (A) (A) (A) (A) (A)
                 (A) (A) (A) (A) (A) (A) (A) (A) (A) (A) (A) (A)
                 (A) (A) (A) (A) (A) (A) (A) (A) (A) (A) (A) (A)
                 (A) (A) (A) (A) (A) (A) (A) (A) (A) (A) (A) (A)
                 (A) (A) (A) (A) (A) (A) (A) (A) (A) (A) (A) (A)
                 (A) (A) (A) (A) (A) (A) (A) (A) (A) (A) (A) (A)
                 (A) (A) (A) (A) (A) (A) (A) (A) (A) (A) (A) (A)
                 (A) (A) (A) (A) (A) (A) (A) (A) (A) (A) (A) (A)
                 (A)
 The electronic state is 1-A.
 Alpha  occ. eigenvalues -- -101.43431 -77.01927 -19.02456 -18.97913 -18.92222
 Alpha  occ. eigenvalues --  -18.91328  -9.34410  -7.11146  -7.09816  -7.09784
 Alpha  occ. eigenvalues --   -6.49429  -4.65824  -4.65685  -4.65370  -0.86890
 Alpha  occ. eigenvalues --   -0.83104  -0.78071  -0.75202  -0.64468  -0.41520
 Alpha  occ. eigenvalues --   -0.33384  -0.28622  -0.25942  -0.24067  -0.22657
 Alpha  occ. eigenvalues --   -0.20245  -0.18651  -0.16217  -0.14656  -0.13709
 Alpha  occ. eigenvalues --   -0.12478  -0.11170  -0.10411
 Alpha virt. eigenvalues --    0.02922   0.16743   0.22242   0.24492   0.27626
 Alpha virt. eigenvalues --    0.29926   0.34016   0.37039   0.39668   0.42407
 Alpha virt. eigenvalues --    0.44156   0.46345   0.54678   0.56310   0.75257
 Alpha virt. eigenvalues --    0.77562   0.81274   0.86719   0.88810   0.90398
 Alpha virt. eigenvalues --    0.92527   0.94722   0.97669   0.99712   1.00097
 Alpha virt. eigenvalues --    1.02262   1.03857   1.04877   1.05908   1.10892
 Alpha virt. eigenvalues --    1.11512   1.13617   1.14461   1.16159   1.19775
 Alpha virt. eigenvalues --    1.20643   1.34068   1.40613   1.48706   1.51278
 Alpha virt. eigenvalues --    1.53900   1.62319   1.71416   1.74091   1.84418
 Alpha virt. eigenvalues --    1.94579   2.10705   2.23543   2.23849   2.27375
 Alpha virt. eigenvalues --    2.54969   2.94212   2.95295   2.96326   3.00586
 Alpha virt. eigenvalues --    3.02234   3.02382   3.02845   3.04367   3.05882
 Alpha virt. eigenvalues --    3.08380   3.13888   3.14672   3.24266   3.25510
 Alpha virt. eigenvalues --    3.26370   3.30379   3.36897   3.54938   3.59064
 Alpha virt. eigenvalues --    3.87728   4.89059   4.91556   4.93930   4.98568
 Alpha virt. eigenvalues --    4.99042   5.00949   5.01428   5.07381   5.12495
 Alpha virt. eigenvalues --    5.18085   5.21214   5.56338   7.02811   9.54455
 Alpha virt. eigenvalues --   13.93603  13.97515  14.12334  25.53084  25.56148
 Alpha virt. eigenvalues --   25.91785  49.86823  49.93629  49.96268  50.03987
 Alpha virt. eigenvalues --  163.02294 215.47352
          Condensed to atoms (all electrons):
               1          2          3          4          5          6
     1  P   12.495133   0.156362   0.214925  -0.020526   0.485927   0.485281
     2  O    0.156362   8.373368  -0.020525   0.000446  -0.019780  -0.021636
     3  O    0.214925  -0.020525   8.154668   0.296505  -0.033165  -0.022939
     4  H   -0.020526   0.000446   0.296505   0.455099   0.005496   0.000007
     5  O    0.485927  -0.019780  -0.033165   0.005496   8.267270  -0.019743
     6  O    0.485281  -0.021636  -0.022939   0.000007  -0.019743   8.214723
     7  Cl  -0.034694   0.044155   0.002163   0.000880  -0.000646   0.002477
               7
     1  P   -0.034694
     2  O    0.044155
     3  O    0.002163
     4  H    0.000880
     5  O   -0.000646
     6  O    0.002477
     7  Cl  17.037798
 Mulliken charges:
               1
     1  P    1.217592
     2  O   -0.512390
     3  O   -0.591633
     4  H    0.262092
     5  O   -0.685359
     6  O   -0.638170
     7  Cl  -0.052133
 Sum of Mulliken charges =  -1.00000
 Mulliken charges with hydrogens summed into heavy atoms:
               1
     1  P    1.217592
     2  O   -0.512390
     3  O   -0.329541
     5  O   -0.685359
     6  O   -0.638170
     7  Cl  -0.052133
 Electronic spatial extent (au):  <R**2>=            879.7388
 Charge=             -1.0000 electrons
 Dipole moment (field-independent basis, Debye):
    X=              3.2468    Y=             -2.5092    Z=              1.2861  Tot=              4.3002
 Quadrupole moment (field-independent basis, Debye-Ang):
   XX=            -62.8004   YY=            -53.6283   ZZ=            -58.6430
   XY=              1.4971   XZ=             -0.5028   YZ=             -4.1409
 Traceless Quadrupole moment (field-independent basis, Debye-Ang):
   XX=             -4.4432   YY=              4.7289   ZZ=             -0.2858
   XY=              1.4971   XZ=             -0.5028   YZ=             -4.1409
 Octapole moment (field-independent basis, Debye-Ang**2):
  XXX=             12.3493  YYY=            -15.4654  ZZZ=              4.5977  XYY=              7.1665
  XXY=            -13.3533  XXZ=             -0.7404  XZZ=              6.3299  YZZ=              7.1335
  YYZ=              6.4469  XYZ=              2.6170
 Hexadecapole moment (field-independent basis, Debye-Ang**3):
 XXXX=           -735.8619 YYYY=           -203.0662 ZZZZ=           -207.3344 XXXY=              8.4068
 XXXZ=              0.0640 YYYX=             10.0031 YYYZ=            -15.9764 ZZZX=             -3.3369
 ZZZY=             -5.6424 XXYY=           -170.9331 XXZZ=           -160.2497 YYZZ=            -70.5619
 XXYZ=             -2.4395 YYXZ=             -2.6592 ZZXY=             -7.3395
 N-N= 3.791501433357D+02 E-N=-3.390833767672D+03  KE= 1.100251189338D+03
 1\1\GINC-BLADI36\SP\RB3LYP\6-311G(d,p)\Cl1H1O4P1(1-)\SARARIOP\21-Jun-2
 017\0\\# B3LYP/6-311G** geom=check guess=read output=wfx\\Title Card R
 equired\\-1,1\P,0,-0.2010812737,0.421278886,0.001851815\O,0,1.40268825
 ,-0.371754358,-0.4220789741\O,0,-0.2487888586,1.6989217973,-1.19531508
 15\H,0,0.012337256,2.5394276636,-0.7784517283\O,0,-0.1540389649,1.1287
 783955,1.4192040847\O,0,-1.1368548344,-0.7692156629,-0.452513513\Cl,0,
 2.9269222055,0.6882495386,-0.1844936028\\Version=AM64L-G09RevD.01\Stat
 e=1-A\HF=-1103.2601341\RMSD=5.748e-09\Dipole=1.1931051,1.1477035,-0.34
 86059\Quadrupole=-3.0902665,4.2916878,-1.2014212,-1.7392023,0.365222,-
 2.1568765\PG=C01 [X(Cl1H1O4P1)]\\@

 Writing a WFNX file to "H2ClPO4-A.wfx"


 UNLESS WE CHANGE DIRECTIONS, WE WILL WIND UP WHERE WE ARE HEADED.
     -- CONFUCIUS
 Job cpu time:       0 days  0 hours  0 minutes 46.6 seconds.
 File lengths (MBytes):  RWF=      8 Int=      0 D2E=      0 Chk=      4 Scr=      1
 Normal termination of Gaussian 09 at Wed Jun 21 05:32:48 2017.
