 Entering Gaussian System, Link 0=g09
 Initial command:
 /usr/local/gaussian/gaussian09.d1/g09/l1.exe "/scratch/sarariop/H2ClPO4-h2o.com/Gau-19221.inp" -scrdir="/scratch/sarariop/H2ClPO4-h2o.com/"
 Default is to use a total of  10 processors:
                               10 via shared-memory
                                1 via Linda
 Entering Link 1 = /usr/local/gaussian/gaussian09.d1/g09/l1.exe PID=     19222.
  
 Copyright (c) 1988,1990,1992,1993,1995,1998,2003,2009,2013,
            Gaussian, Inc.  All Rights Reserved.
  
 This is part of the Gaussian(R) 09 program.  It is based on
 the Gaussian(R) 03 system (copyright 2003, Gaussian, Inc.),
 the Gaussian(R) 98 system (copyright 1998, Gaussian, Inc.),
 the Gaussian(R) 94 system (copyright 1995, Gaussian, Inc.),
 the Gaussian 92(TM) system (copyright 1992, Gaussian, Inc.),
 the Gaussian 90(TM) system (copyright 1990, Gaussian, Inc.),
 the Gaussian 88(TM) system (copyright 1988, Gaussian, Inc.),
 the Gaussian 86(TM) system (copyright 1986, Carnegie Mellon
 University), and the Gaussian 82(TM) system (copyright 1983,
 Carnegie Mellon University). Gaussian is a federally registered
 trademark of Gaussian, Inc.
  
 This software contains proprietary and confidential information,
 including trade secrets, belonging to Gaussian, Inc.
  
 This software is provided under written license and may be
 used, copied, transmitted, or stored only in accord with that
 written license.
  
 The following legend is applicable only to US Government
 contracts under FAR:
  
                    RESTRICTED RIGHTS LEGEND
  
 Use, reproduction and disclosure by the US Government is
 subject to restrictions as set forth in subparagraphs (a)
 and (c) of the Commercial Computer Software - Restricted
 Rights clause in FAR 52.227-19.
  
 Gaussian, Inc.
 340 Quinnipiac St., Bldg. 40, Wallingford CT 06492
  
  
 ---------------------------------------------------------------
 Warning -- This program may not be used in any manner that
 competes with the business of Gaussian, Inc. or will provide
 assistance to any competitor of Gaussian, Inc.  The licensee
 of this program is prohibited from giving any competitor of
 Gaussian, Inc. access to this program.  By using this program,
 the user acknowledges that Gaussian, Inc. is engaged in the
 business of creating and licensing software in the field of
 computational chemistry and represents and warrants to the
 licensee that it is not a competitor of Gaussian, Inc. and that
 it will not use this program in any manner prohibited above.
 ---------------------------------------------------------------
  

 Cite this work as:
 Gaussian 09, Revision D.01,
 M. J. Frisch, G. W. Trucks, H. B. Schlegel, G. E. Scuseria, 
 M. A. Robb, J. R. Cheeseman, G. Scalmani, V. Barone, B. Mennucci, 
 G. A. Petersson, H. Nakatsuji, M. Caricato, X. Li, H. P. Hratchian, 
 A. F. Izmaylov, J. Bloino, G. Zheng, J. L. Sonnenberg, M. Hada, 
 M. Ehara, K. Toyota, R. Fukuda, J. Hasegawa, M. Ishida, T. Nakajima, 
 Y. Honda, O. Kitao, H. Nakai, T. Vreven, J. A. Montgomery, Jr., 
 J. E. Peralta, F. Ogliaro, M. Bearpark, J. J. Heyd, E. Brothers, 
 K. N. Kudin, V. N. Staroverov, T. Keith, R. Kobayashi, J. Normand, 
 K. Raghavachari, A. Rendell, J. C. Burant, S. S. Iyengar, J. Tomasi, 
 M. Cossi, N. Rega, J. M. Millam, M. Klene, J. E. Knox, J. B. Cross, 
 V. Bakken, C. Adamo, J. Jaramillo, R. Gomperts, R. E. Stratmann, 
 O. Yazyev, A. J. Austin, R. Cammi, C. Pomelli, J. W. Ochterski, 
 R. L. Martin, K. Morokuma, V. G. Zakrzewski, G. A. Voth, 
 P. Salvador, J. J. Dannenberg, S. Dapprich, A. D. Daniels, 
 O. Farkas, J. B. Foresman, J. V. Ortiz, J. Cioslowski, 
 and D. J. Fox, Gaussian, Inc., Wallingford CT, 2013.
 
 ******************************************
 Gaussian 09:  AM64L-G09RevD.01 24-Apr-2013
                23-Jun-2017 
 ******************************************
 %chk=H2ClPO4-h2o.chk
 Default route:  MaxDisk=70GB
 -----------------------------------------
 # opt freq b3lyp/6-311g geom=connectivity
 -----------------------------------------
 1/14=-1,18=20,19=15,26=3,38=1,57=2/1,3;
 2/9=110,12=2,17=6,18=5,40=1/2;
 3/5=4,6=6,11=2,16=1,25=1,30=1,71=1,74=-5/1,2,3;
 4//1;
 5/5=2,38=5/2;
 6/7=2,8=2,9=2,10=2,28=1/1;
 7//1,2,3,16;
 1/14=-1,18=20,19=15,26=3/3(2);
 2/9=110/2;
 99//99;
 2/9=110/2;
 3/5=4,6=6,11=2,16=1,25=1,30=1,71=1,74=-5/1,2,3;
 4/5=5,16=3,69=1/1;
 5/5=2,38=5/2;
 7//1,2,3,16;
 1/14=-1,18=20,19=15,26=3/3(-5);
 2/9=110/2;
 6/7=2,8=2,9=2,10=2,19=2,28=1/1;
 99/9=1/99;
 -------------------
 Title Card Required
 -------------------
 Symbolic Z-matrix:
 Charge =  0 Multiplicity = 1
 P                    -1.01235   0.06173   0. 
 O                     0.33314  -0.78357  -0.41619 
 O                    -1.11972   1.1513   -1.16197 
 H                    -1.45292   1.99487  -0.83404 
 O                    -1.08822   0.56264   1.37828 
 O                    -2.07991  -1.03294  -0.46516 
 H                    -2.22567  -1.72137   0.19504 
 Cl                    1.85      0.0002   -0.11271 
 O                    -2.20158  -1.61783   1.41741 
 H                    -1.24158  -1.61783   1.41741 
 H                    -2.52203  -0.71289   1.41741 
 
 Add virtual bond connecting atoms O9         and H7         Dist= 2.32D+00.

 GradGradGradGradGradGradGradGradGradGradGradGradGradGradGradGradGradGrad
 Berny optimization.
 Initialization pass.
                           ----------------------------
                           !    Initial Parameters    !
                           ! (Angstroms and Degrees)  !
 --------------------------                            --------------------------
 ! Name  Definition              Value          Derivative Info.                !
 --------------------------------------------------------------------------------
 ! R1    R(1,2)                  1.6426         estimate D2E/DX2                !
 ! R2    R(1,3)                  1.5965         estimate D2E/DX2                !
 ! R3    R(1,5)                  1.4684         estimate D2E/DX2                !
 ! R4    R(1,6)                  1.5982         estimate D2E/DX2                !
 ! R5    R(2,8)                  1.7341         estimate D2E/DX2                !
 ! R6    R(3,4)                  0.9644         estimate D2E/DX2                !
 ! R7    R(6,7)                  0.9649         estimate D2E/DX2                !
 ! R8    R(7,9)                  1.227          estimate D2E/DX2                !
 ! R9    R(9,10)                 0.96           estimate D2E/DX2                !
 ! R10   R(9,11)                 0.96           estimate D2E/DX2                !
 ! A1    A(2,1,3)              102.8199         estimate D2E/DX2                !
 ! A2    A(2,1,5)              117.1094         estimate D2E/DX2                !
 ! A3    A(2,1,6)               96.9457         estimate D2E/DX2                !
 ! A4    A(3,1,5)              116.5417         estimate D2E/DX2                !
 ! A5    A(3,1,6)              102.1626         estimate D2E/DX2                !
 ! A6    A(5,1,6)              118.1836         estimate D2E/DX2                !
 ! A7    A(1,2,8)              116.0757         estimate D2E/DX2                !
 ! A8    A(1,3,4)              111.8816         estimate D2E/DX2                !
 ! A9    A(1,6,7)              112.9819         estimate D2E/DX2                !
 ! A10   A(6,7,9)              128.2035         estimate D2E/DX2                !
 ! A11   A(7,9,10)              91.125          estimate D2E/DX2                !
 ! A12   A(7,9,11)              94.1861         estimate D2E/DX2                !
 ! A13   A(10,9,11)            109.5            estimate D2E/DX2                !
 ! D1    D(3,1,2,8)             75.4661         estimate D2E/DX2                !
 ! D2    D(5,1,2,8)            -53.6822         estimate D2E/DX2                !
 ! D3    D(6,1,2,8)            179.6712         estimate D2E/DX2                !
 ! D4    D(2,1,3,4)           -144.4932         estimate D2E/DX2                !
 ! D5    D(5,1,3,4)            -14.9945         estimate D2E/DX2                !
 ! D6    D(6,1,3,4)            115.375          estimate D2E/DX2                !
 ! D7    D(2,1,6,7)             82.6265         estimate D2E/DX2                !
 ! D8    D(3,1,6,7)           -172.6048         estimate D2E/DX2                !
 ! D9    D(5,1,6,7)            -43.253          estimate D2E/DX2                !
 ! D10   D(1,6,7,9)             33.634          estimate D2E/DX2                !
 ! D11   D(6,7,9,10)           -78.011          estimate D2E/DX2                !
 ! D12   D(6,7,9,11)            31.6347         estimate D2E/DX2                !
 ! D13   D(7,9,10,11)           94.842          estimate D2E/DX2                !
 --------------------------------------------------------------------------------
 Trust Radius=3.00D-01 FncErr=1.00D-07 GrdErr=1.00D-06
 Number of steps in this run=     46 maximum allowed number of steps=    100.
 GradGradGradGradGradGradGradGradGradGradGradGradGradGradGradGradGradGrad

                          Input orientation:                          
 ---------------------------------------------------------------------
 Center     Atomic      Atomic             Coordinates (Angstroms)
 Number     Number       Type             X           Y           Z
 ---------------------------------------------------------------------
      1         15           0       -1.012346    0.061728    0.000000
      2          8           0        0.333136   -0.783574   -0.416191
      3          8           0       -1.119716    1.151302   -1.161971
      4          1           0       -1.452920    1.994865   -0.834039
      5          8           0       -1.088225    0.562638    1.378275
      6          8           0       -2.079909   -1.032939   -0.465160
      7          1           0       -2.225668   -1.721374    0.195035
      8         17           0        1.849996    0.000203   -0.112711
      9          8           0       -2.201578   -1.617827    1.417406
     10          1           0       -1.241578   -1.617827    1.417406
     11          1           0       -2.522032   -0.712891    1.417406
 ---------------------------------------------------------------------
                    Distance matrix (angstroms):
                    1          2          3          4          5
     1  P    0.000000
     2  O    1.642581   0.000000
     3  O    1.596520   2.531938   0.000000
     4  H    2.150987   3.329312   0.964449   0.000000
     5  O    1.468438   2.655685   2.607751   2.660566   0.000000
     6  O    1.598237   2.426390   2.485644   3.113966   2.632025
     7  H    2.165558   2.792945   3.364054   3.932755   2.812569
     8  Cl   2.865221   1.734148   3.353381   3.925334   3.342531
     9  O    2.498843   3.237720   3.935948   4.322156   2.448574
    10  H    2.209636   2.556908   3.786306   4.262067   2.186201
    11  H    2.210933   3.393974   3.477771   3.680210   1.919456
                    6          7          8          9         10
     6  O    0.000000
     7  H    0.964907   0.000000
     8  Cl   4.078695   4.435039   0.000000
     9  O    1.975082   1.226985   4.623260   0.000000
    10  H    2.142183   1.572687   3.810132   0.960000   0.000000
    11  H    1.960091   1.612160   4.686618   0.960000   1.567952
                   11
    11  H    0.000000
 Stoichiometry    ClH4O5P
 Framework group  C1[X(ClH4O5P)]
 Deg. of freedom    27
 Full point group                 C1      NOp   1
 Largest Abelian subgroup         C1      NOp   1
 Largest concise Abelian subgroup C1      NOp   1
                         Standard orientation:                         
 ---------------------------------------------------------------------
 Center     Atomic      Atomic             Coordinates (Angstroms)
 Number     Number       Type             X           Y           Z
 ---------------------------------------------------------------------
      1         15           0       -0.374834    0.393858    0.091760
      2          8           0        0.794045   -0.406600   -0.739541
      3          8           0        0.043787    1.923458   -0.092508
      4          1           0       -0.148664    2.446145    0.694845
      5          8           0       -0.643999   -0.051953    1.464754
      6          8           0       -1.533633    0.228444   -0.996441
      7          1           0       -1.983116   -0.623614   -0.941595
      8         17           0        2.341657   -0.515524    0.035253
      9          8           0       -2.215157   -1.296198    0.058045
     10          1           0       -1.307877   -1.609093    0.081259
     11          1           0       -2.306348   -0.534595    0.635319
 ---------------------------------------------------------------------
 Rotational constants (GHZ):      2.9029747      1.2604736      1.1163939
 Standard basis: 6-311G (5D, 7F)
 There are   119 symmetry adapted cartesian basis functions of A   symmetry.
 There are   119 symmetry adapted basis functions of A   symmetry.
   119 basis functions,   233 primitive gaussians,   119 cartesian basis functions
    38 alpha electrons       38 beta electrons
       nuclear repulsion energy       549.8208037175 Hartrees.



 Warning!  P  atom    1 may be hypervalent but has no d functions.



 NAtoms=   11 NActive=   11 NUniq=   11 SFac= 1.00D+00 NAtFMM=   60 NAOKFM=F Big=F
 Integral buffers will be    131072 words long.
 Raffenetti 2 integral format.
 Two-electron integral symmetry is turned on.
 One-electron integrals computed using PRISM.
 NBasis=   119 RedAO= T EigKep=  8.81D-03  NBF=   119
 NBsUse=   119 1.00D-06 EigRej= -1.00D+00 NBFU=   119
 ExpMin= 6.85D-02 ExpMax= 1.06D+05 ExpMxC= 3.62D+03 IAcc=2 IRadAn=         4 AccDes= 0.00D+00
 Harris functional with IExCor=  402 and IRadAn=       4 diagonalized for initial guess.
 HarFok:  IExCor=  402 AccDes= 0.00D+00 IRadAn=         4 IDoV= 1 UseB2=F ITyADJ=14
 ICtDFT=  3500011 ScaDFX=  1.000000  1.000000  1.000000  1.000000
 FoFCou: FMM=F IPFlag=           0 FMFlag=      100000 FMFlg1=           0
         NFxFlg=           0 DoJE=T BraDBF=F KetDBF=T FulRan=T
         wScrn=  0.000000 ICntrl=     500 IOpCl=  0 I1Cent=   200000004 NGrid=           0
         NMat0=    1 NMatS0=      1 NMatT0=    0 NMatD0=    1 NMtDS0=    0 NMtDT0=    0
 Petite list used in FoFCou.
 Keep R1 ints in memory in canonical form, NReq=26496552.
 Requested convergence on RMS density matrix=1.00D-08 within 128 cycles.
 Requested convergence on MAX density matrix=1.00D-06.
 Requested convergence on             energy=1.00D-06.
 No special actions if energy rises.
 Integral accuracy reduced to 1.0D-05 until final iterations.
 Initial convergence to 1.0D-05 achieved.  Increase integral accuracy.
 SCF Done:  E(RB3LYP) =  -1179.87016080     A.U. after   17 cycles
            NFock= 17  Conv=0.36D-08     -V/T= 2.0005

 **********************************************************************

            Population analysis using the SCF density.

 **********************************************************************

 Orbital symmetries:
       Occupied  (A) (A) (A) (A) (A) (A) (A) (A) (A) (A) (A) (A)
                 (A) (A) (A) (A) (A) (A) (A) (A) (A) (A) (A) (A)
                 (A) (A) (A) (A) (A) (A) (A) (A) (A) (A) (A) (A)
                 (A) (A)
       Virtual   (A) (A) (A) (A) (A) (A) (A) (A) (A) (A) (A) (A)
                 (A) (A) (A) (A) (A) (A) (A) (A) (A) (A) (A) (A)
                 (A) (A) (A) (A) (A) (A) (A) (A) (A) (A) (A) (A)
                 (A) (A) (A) (A) (A) (A) (A) (A) (A) (A) (A) (A)
                 (A) (A) (A) (A) (A) (A) (A) (A) (A) (A) (A) (A)
                 (A) (A) (A) (A) (A) (A) (A) (A) (A) (A) (A) (A)
                 (A) (A) (A) (A) (A) (A) (A) (A) (A)
 The electronic state is 1-A.
 Alpha  occ. eigenvalues -- -101.63348 -77.29214 -19.23700 -19.20164 -19.17942
 Alpha  occ. eigenvalues --  -19.15271 -19.14653  -9.54520  -7.31563  -7.29696
 Alpha  occ. eigenvalues --   -7.29644  -6.79127  -4.95199  -4.95139  -4.95043
 Alpha  occ. eigenvalues --   -1.20734  -1.15228  -1.11139  -1.07269  -1.04991
 Alpha  occ. eigenvalues --   -0.85694  -0.70079  -0.64043  -0.61802  -0.58093
 Alpha  occ. eigenvalues --   -0.52520  -0.49344  -0.48346  -0.45672  -0.44131
 Alpha  occ. eigenvalues --   -0.42447  -0.40308  -0.38087  -0.36543  -0.35885
 Alpha  occ. eigenvalues --   -0.34837  -0.33382  -0.31503
 Alpha virt. eigenvalues --   -0.13570  -0.02429   0.01090   0.04859   0.06571
 Alpha virt. eigenvalues --    0.08779   0.11458   0.12350   0.15631   0.18824
 Alpha virt. eigenvalues --    0.19632   0.23354   0.27018   0.28642   0.29492
 Alpha virt. eigenvalues --    0.31112   0.33890   0.37715   0.41703   0.47596
 Alpha virt. eigenvalues --    0.65555   0.68828   0.72202   0.73882   0.77615
 Alpha virt. eigenvalues --    0.79451   0.80116   0.85639   0.88572   0.89102
 Alpha virt. eigenvalues --    0.90986   0.93680   0.97721   0.99288   1.02632
 Alpha virt. eigenvalues --    1.06421   1.16247   1.23602   1.24283   1.30658
 Alpha virt. eigenvalues --    1.39811   1.48460   1.51982   1.67561   2.06463
 Alpha virt. eigenvalues --    2.07833   2.11681   2.14046   2.18882   2.20167
 Alpha virt. eigenvalues --    2.28472   4.66761   4.69063   4.71620   4.74247
 Alpha virt. eigenvalues --    4.75008   4.75103   4.77217   4.82507   4.84312
 Alpha virt. eigenvalues --    4.85072   4.88420   4.91681   4.94515   4.96240
 Alpha virt. eigenvalues --    5.05244   6.65559   9.39139  13.65105  13.71366
 Alpha virt. eigenvalues --   13.81158  25.35990  25.38235  25.67115  49.66622
 Alpha virt. eigenvalues --   49.69505  49.71903  49.74583  49.86728 162.74451
 Alpha virt. eigenvalues --  215.32880
          Condensed to atoms (all electrons):
               1          2          3          4          5          6
     1  P   12.990803   0.074215   0.110863  -0.018880   0.238964   0.102237
     2  O    0.074215   8.771195  -0.067211  -0.003054  -0.056128  -0.067319
     3  O    0.110863  -0.067211   8.548230   0.254137  -0.065131  -0.071942
     4  H   -0.018880  -0.003054   0.254137   0.334590  -0.003729  -0.002083
     5  O    0.238964  -0.056128  -0.065131  -0.003729   8.679167  -0.066476
     6  O    0.102237  -0.067319  -0.071942  -0.002083  -0.066476   8.879423
     7  H   -0.045503   0.000844  -0.003742   0.000084   0.004221   0.185763
     8  Cl  -0.049279  -0.003145   0.001266   0.001526   0.002378   0.003610
     9  O    0.033499  -0.004971  -0.000424   0.000330  -0.043086  -0.242959
    10  H    0.003564   0.007446   0.000329  -0.000096  -0.000295   0.019622
    11  H   -0.013894   0.000783  -0.001198  -0.000853   0.033011   0.020077
               7          8          9         10         11
     1  P   -0.045503  -0.049279   0.033499   0.003564  -0.013894
     2  O    0.000844  -0.003145  -0.004971   0.007446   0.000783
     3  O   -0.003742   0.001266  -0.000424   0.000329  -0.001198
     4  H    0.000084   0.001526   0.000330  -0.000096  -0.000853
     5  O    0.004221   0.002378  -0.043086  -0.000295   0.033011
     6  O    0.185763   0.003610  -0.242959   0.019622   0.020077
     7  H    0.344963   0.000325   0.067415  -0.011905  -0.019557
     8  Cl   0.000325  16.796464   0.000070  -0.001740   0.000110
     9  O    0.067415   0.000070   8.462034   0.234039   0.245806
    10  H   -0.011905  -0.001740   0.234039   0.354681  -0.027131
    11  H   -0.019557   0.000110   0.245806  -0.027131   0.328842
 Mulliken charges:
               1
     1  P    1.573412
     2  O   -0.652655
     3  O   -0.705177
     4  H    0.438027
     5  O   -0.722898
     6  O   -0.759952
     7  H    0.477091
     8  Cl   0.248415
     9  O   -0.751753
    10  H    0.421487
    11  H    0.434004
 Sum of Mulliken charges =   0.00000
 Mulliken charges with hydrogens summed into heavy atoms:
               1
     1  P    1.573412
     2  O   -0.652655
     3  O   -0.267150
     5  O   -0.722898
     6  O   -0.282861
     8  Cl   0.248415
     9  O    0.103737
 Electronic spatial extent (au):  <R**2>=           1073.3220
 Charge=              0.0000 electrons
 Dipole moment (field-independent basis, Debye):
    X=              0.3176    Y=              0.8330    Z=              1.8567  Tot=              2.0596
 Quadrupole moment (field-independent basis, Debye-Ang):
   XX=            -55.0194   YY=            -52.2971   ZZ=            -62.7409
   XY=             -2.4518   XZ=              0.5511   YZ=              6.6538
 Traceless Quadrupole moment (field-independent basis, Debye-Ang):
   XX=              1.6664   YY=              4.3887   ZZ=             -6.0551
   XY=             -2.4518   XZ=              0.5511   YZ=              6.6538
 Octapole moment (field-independent basis, Debye-Ang**2):
  XXX=             11.3059  YYY=             11.8824  ZZZ=             -6.4635  XYY=              0.2126
  XXY=              6.1700  XXZ=              8.7718  XZZ=              1.8757  YZZ=              1.1877
  YYZ=             11.6444  XYZ=             -5.5577
 Hexadecapole moment (field-independent basis, Debye-Ang**3):
 XXXX=           -757.3188 YYYY=           -264.7133 ZZZZ=           -210.2397 XXXY=            -31.2994
 XXXZ=              5.9693 YYYX=            -12.3304 YYYZ=             33.3988 ZZZX=              5.0466
 ZZZY=              6.9906 XXYY=           -208.6027 XXZZ=           -163.1970 YYZZ=            -75.6624
 XXYZ=              5.8013 YYXZ=              0.7096 ZZXY=              6.4152
 N-N= 5.498208037175D+02 E-N=-3.898602511594D+03  KE= 1.179262869536D+03
 Calling FoFJK, ICntrl=      2127 FMM=F ISym2X=0 I1Cent= 0 IOpClX= 0 NMat=1 NMatS=1 NMatT=0.
 ***** Axes restored to original set *****
 -------------------------------------------------------------------
 Center     Atomic                   Forces (Hartrees/Bohr)
 Number     Number              X              Y              Z
 -------------------------------------------------------------------
      1       15          -0.003209562   -0.010506316   -0.104244841
      2        8           0.002828565   -0.040788975   -0.011870269
      3        8          -0.000377733    0.039869155   -0.024542364
      4        1          -0.001853297    0.013411742   -0.008816449
      5        8          -0.000103140    0.049838997    0.099659415
      6        8           0.004354562    0.050483123   -0.151856132
      7        1          -0.028795555   -0.043731813   -0.006189346
      8       17           0.047201286    0.017921593    0.006558672
      9        8          -0.019752364   -0.071245397    0.127191948
     10        1           0.009015174   -0.009282195    0.040060947
     11        1          -0.009307935    0.004030085    0.034048418
 -------------------------------------------------------------------
 Cartesian Forces:  Max     0.151856132 RMS     0.050256182

 GradGradGradGradGradGradGradGradGradGradGradGradGradGradGradGradGradGrad
 Berny optimization.
 FormGI is forming the generalized inverse of G from B-inverse, IUseBI=4.
 Internal  Forces:  Max     0.290728052 RMS     0.083026845
 Search for a local minimum.
 Step number   1 out of a maximum of   46
 All quantities printed in internal units (Hartrees-Bohrs-Radians)
 Mixed Optimization -- RFO/linear search
 Second derivative matrix not updated -- first step.
 ITU=  0
     Eigenvalues ---    0.00230   0.01493   0.02850   0.03436   0.03459
     Eigenvalues ---    0.07910   0.10770   0.12334   0.13169   0.16000
     Eigenvalues ---    0.16000   0.16000   0.16086   0.20751   0.21525
     Eigenvalues ---    0.22796   0.25000   0.25000   0.32075   0.43793
     Eigenvalues ---    0.51560   0.51896   0.54431   0.54527   0.55473
     Eigenvalues ---    0.55473   0.88156
 RFO step:  Lambda=-3.73574067D-01 EMin= 2.30000000D-03
 Linear search not attempted -- first point.
 Maximum step size (   0.300) exceeded in Quadratic search.
    -- Step size scaled by   0.397
 Iteration  1 RMS(Cart)=  0.21484559 RMS(Int)=  0.01386280
 Iteration  2 RMS(Cart)=  0.05198484 RMS(Int)=  0.00071381
 Iteration  3 RMS(Cart)=  0.00125667 RMS(Int)=  0.00014295
 Iteration  4 RMS(Cart)=  0.00000096 RMS(Int)=  0.00014295
 Variable       Old X    -DE/DX   Delta X   Delta X   Delta X     New X
                                 (Linear)    (Quad)   (Total)
    R1        3.10403   0.05409   0.00000   0.02645   0.02645   3.13048
    R2        3.01699   0.06079   0.00000   0.02703   0.02703   3.04402
    R3        2.77495   0.11055   0.00000   0.03495   0.03495   2.80990
    R4        3.02023   0.06486   0.00000   0.02895   0.02895   3.04918
    R5        3.27707   0.05053   0.00000   0.02888   0.02888   3.30595
    R6        1.82255   0.00938   0.00000   0.00405   0.00405   1.82660
    R7        1.82341   0.22668   0.00000   0.09801   0.09801   1.92142
    R8        2.31867   0.19372   0.00000   0.12781   0.12781   2.44647
    R9        1.81414   0.00903   0.00000   0.00386   0.00386   1.81800
   R10        1.81414   0.00690   0.00000   0.00295   0.00295   1.81709
    A1        1.79455   0.00443   0.00000   0.00252   0.00251   1.79706
    A2        2.04394  -0.00432   0.00000  -0.00352  -0.00354   2.04041
    A3        1.69202  -0.00173   0.00000  -0.00054  -0.00054   1.69148
    A4        2.03404  -0.01356   0.00000  -0.00977  -0.00979   2.02424
    A5        1.78307   0.00804   0.00000   0.00598   0.00598   1.78906
    A6        2.06269   0.00981   0.00000   0.00730   0.00731   2.07000
    A7        2.02590   0.02032   0.00000   0.01294   0.01294   2.03884
    A8        1.95270   0.02396   0.00000   0.01782   0.01782   1.97052
    A9        1.97191   0.20108   0.00000   0.14956   0.14956   2.12146
   A10        2.23757   0.29073   0.00000   0.18503   0.18503   2.42260
   A11        1.59043   0.05749   0.00000   0.04436   0.04421   1.63464
   A12        1.64386   0.01848   0.00000   0.01827   0.01796   1.66182
   A13        1.91114   0.00982   0.00000   0.00864   0.00819   1.91933
    D1        1.31713  -0.00872   0.00000  -0.00667  -0.00667   1.31046
    D2       -0.93693   0.00863   0.00000   0.00669   0.00669  -0.93025
    D3        3.13585   0.00000   0.00000  -0.00012  -0.00011   3.13574
    D4       -2.52188   0.00466   0.00000   0.00401   0.00401  -2.51788
    D5       -0.26170  -0.00694   0.00000  -0.00544  -0.00542  -0.26712
    D6        2.01367   0.00318   0.00000   0.00231   0.00229   2.01597
    D7        1.44211  -0.01092   0.00000  -0.00982  -0.00983   1.43228
    D8       -3.01252  -0.00530   0.00000  -0.00625  -0.00626  -3.01878
    D9       -0.75491  -0.00947   0.00000  -0.00893  -0.00891  -0.76382
   D10        0.58702   0.03320   0.00000   0.03391   0.03391   0.62094
   D11       -1.36155  -0.01111   0.00000  -0.01014  -0.01056  -1.37210
   D12        0.55213   0.00449   0.00000   0.00315   0.00357   0.55570
   D13        1.65530   0.04064   0.00000   0.03567   0.03593   1.69123
         Item               Value     Threshold  Converged?
 Maximum Force            0.290728     0.000450     NO 
 RMS     Force            0.083027     0.000300     NO 
 Maximum Displacement     0.598662     0.001800     NO 
 RMS     Displacement     0.261576     0.001200     NO 
 Predicted change in Energy=-1.361841D-01
 GradGradGradGradGradGradGradGradGradGradGradGradGradGradGradGradGradGrad

                          Input orientation:                          
 ---------------------------------------------------------------------
 Center     Atomic      Atomic             Coordinates (Angstroms)
 Number     Number       Type             X           Y           Z
 ---------------------------------------------------------------------
      1         15           0       -0.931256    0.190560   -0.054843
      2          8           0        0.414396   -0.689931   -0.452604
      3          8           0       -1.059638    1.227910   -1.280477
      4          1           0       -1.380477    2.097241   -1.005473
      5          8           0       -0.968218    0.784498    1.307818
      6          8           0       -2.020788   -0.936970   -0.435844
      7          1           0       -2.255386   -1.688899    0.207108
      8         17           0        1.963252    0.093453   -0.233822
      9          8           0       -2.387774   -1.875277    1.481381
     10          1           0       -1.439700   -1.934625    1.633561
     11          1           0       -2.695247   -0.983653    1.668648
 ---------------------------------------------------------------------
                    Distance matrix (angstroms):
                    1          2          3          4          5
     1  P    0.000000
     2  O    1.656580   0.000000
     3  O    1.610824   2.556612   0.000000
     4  H    2.177367   3.360887   0.966593   0.000000
     5  O    1.486935   2.680419   2.627592   2.691573   0.000000
     6  O    1.613557   2.447740   2.514741   3.152922   2.666779
     7  H    2.313937   2.925900   3.485757   4.070710   2.997675
     8  Cl   2.901662   1.749432   3.394163   3.973806   3.383448
     9  O    2.957890   3.605205   4.361373   4.793745   3.019878
    10  H    2.761455   3.055981   4.317139   4.819123   2.778855
    11  H    2.731457   3.775693   4.032811   4.286193   2.497836
                    6          7          8          9         10
     6  O    0.000000
     7  H    1.016770   0.000000
     8  Cl   4.120093   4.600881   0.000000
     9  O    2.165837   1.294618   5.074372   0.000000
    10  H    2.369686   1.661473   4.379532   0.962042   0.000000
    11  H    2.210420   1.681353   5.145985   0.961561   1.575428
                   11
    11  H    0.000000
 Stoichiometry    ClH4O5P
 Framework group  C1[X(ClH4O5P)]
 Deg. of freedom    27
 Full point group                 C1      NOp   1
 Largest Abelian subgroup         C1      NOp   1
 Largest concise Abelian subgroup C1      NOp   1
                         Standard orientation:                         
 ---------------------------------------------------------------------
 Center     Atomic      Atomic             Coordinates (Angstroms)
 Number     Number       Type             X           Y           Z
 ---------------------------------------------------------------------
      1         15           0       -0.286599    0.472028    0.098328
      2          8           0        0.780939   -0.526126   -0.681614
      3          8           0        0.256312    1.942471   -0.272887
      4          1           0        0.152533    2.575419    0.450237
      5          8           0       -0.520615    0.209598    1.543091
      6          8           0       -1.515645    0.283467   -0.929998
      7          1           0       -2.138671   -0.518053   -0.873202
      8         17           0        2.368480   -0.696719    0.033312
      9          8           0       -2.672894   -1.274465    0.031497
     10          1           0       -1.870681   -1.788979    0.162858
     11          1           0       -2.733133   -0.584156    0.698164
 ---------------------------------------------------------------------
 Rotational constants (GHZ):      2.6701254      1.1415797      0.9963616
 Standard basis: 6-311G (5D, 7F)
 There are   119 symmetry adapted cartesian basis functions of A   symmetry.
 There are   119 symmetry adapted basis functions of A   symmetry.
   119 basis functions,   233 primitive gaussians,   119 cartesian basis functions
    38 alpha electrons       38 beta electrons
       nuclear repulsion energy       529.2516354682 Hartrees.



 Warning!  P  atom    1 may be hypervalent but has no d functions.



 NAtoms=   11 NActive=   11 NUniq=   11 SFac= 1.00D+00 NAtFMM=   60 NAOKFM=F Big=F
 Integral buffers will be    131072 words long.
 Raffenetti 2 integral format.
 Two-electron integral symmetry is turned on.
 One-electron integrals computed using PRISM.
 NBasis=   119 RedAO= T EigKep=  1.06D-02  NBF=   119
 NBsUse=   119 1.00D-06 EigRej= -1.00D+00 NBFU=   119
 Initial guess from the checkpoint file:  "H2ClPO4-h2o.chk"
 B after Tr=     0.000000    0.000000    0.000000
         Rot=    0.998491    0.034508   -0.004913    0.042425 Ang=   6.30 deg.
 ExpMin= 6.85D-02 ExpMax= 1.06D+05 ExpMxC= 3.62D+03 IAcc=2 IRadAn=         4 AccDes= 0.00D+00
 Harris functional with IExCor=  402 and IRadAn=       4 diagonalized for initial guess.
 HarFok:  IExCor=  402 AccDes= 0.00D+00 IRadAn=         4 IDoV= 1 UseB2=F ITyADJ=14
 ICtDFT=  3500011 ScaDFX=  1.000000  1.000000  1.000000  1.000000
 FoFCou: FMM=F IPFlag=           0 FMFlag=      100000 FMFlg1=           0
         NFxFlg=           0 DoJE=T BraDBF=F KetDBF=T FulRan=T
         wScrn=  0.000000 ICntrl=     500 IOpCl=  0 I1Cent=   200000004 NGrid=           0
         NMat0=    1 NMatS0=      1 NMatT0=    0 NMatD0=    1 NMtDS0=    0 NMtDT0=    0
 Petite list used in FoFCou.
 Keep R1 ints in memory in canonical form, NReq=26496552.
 Requested convergence on RMS density matrix=1.00D-08 within 128 cycles.
 Requested convergence on MAX density matrix=1.00D-06.
 Requested convergence on             energy=1.00D-06.
 No special actions if energy rises.
 Integral accuracy reduced to 1.0D-05 until final iterations.
 Initial convergence to 1.0D-05 achieved.  Increase integral accuracy.
 SCF Done:  E(RB3LYP) =  -1179.95713823     A.U. after   16 cycles
            NFock= 16  Conv=0.46D-08     -V/T= 2.0012
 Calling FoFJK, ICntrl=      2127 FMM=F ISym2X=0 I1Cent= 0 IOpClX= 0 NMat=1 NMatS=1 NMatT=0.
 ***** Axes restored to original set *****
 -------------------------------------------------------------------
 Center     Atomic                   Forces (Hartrees/Bohr)
 Number     Number              X              Y              Z
 -------------------------------------------------------------------
      1       15          -0.023181807   -0.032686858   -0.054276816
      2        8           0.003110790   -0.036289345   -0.009895689
      3        8          -0.000761737    0.031590766   -0.022873172
      4        1          -0.001280389    0.008842429   -0.007531238
      5        8          -0.003994360    0.030519931    0.078803364
      6        8           0.003699334    0.018070951   -0.058793033
      7        1          -0.008991352   -0.001747034   -0.012971746
      8       17           0.037983673    0.015043493    0.003473782
      9        8          -0.009358645   -0.034834668    0.043564163
     10        1           0.008085319   -0.005986406    0.022977723
     11        1          -0.005310827    0.007476742    0.017522660
 -------------------------------------------------------------------
 Cartesian Forces:  Max     0.078803364 RMS     0.027381351

 GradGradGradGradGradGradGradGradGradGradGradGradGradGradGradGradGradGrad
 Berny optimization.
 Using GEDIIS/GDIIS optimizer.
 FormGI is forming the generalized inverse of G from B-inverse, IUseBI=4.
 Internal  Forces:  Max     0.088259120 RMS     0.031944395
 Search for a local minimum.
 Step number   2 out of a maximum of   46
 All quantities printed in internal units (Hartrees-Bohrs-Radians)
 Mixed Optimization -- RFO/linear search
 Update second derivatives using D2CorX and points    1    2
 DE= -8.70D-02 DEPred=-1.36D-01 R= 6.39D-01
 TightC=F SS=  1.41D+00  RLast= 3.05D-01 DXNew= 5.0454D-01 9.1419D-01
 Trust test= 6.39D-01 RLast= 3.05D-01 DXMaxT set to 5.05D-01
 ITU=  1  0
 Use linear search instead of GDIIS.
 Linear search step of   0.600 exceeds DXMaxT=   0.505 but not scaled.
 Quartic linear search produced a step of  2.00000.
 Iteration  1 RMS(Cart)=  0.29739756 RMS(Int)=  0.04569178
 Iteration  2 RMS(Cart)=  0.21416874 RMS(Int)=  0.01430412
 Iteration  3 RMS(Cart)=  0.02392086 RMS(Int)=  0.00102414
 Iteration  4 RMS(Cart)=  0.00070142 RMS(Int)=  0.00086469
 Iteration  5 RMS(Cart)=  0.00000044 RMS(Int)=  0.00086469
 Variable       Old X    -DE/DX   Delta X   Delta X   Delta X     New X
                                 (Linear)    (Quad)   (Total)
    R1        3.13048   0.04620   0.05291   0.00000   0.05291   3.18339
    R2        3.04402   0.04935   0.05406   0.00000   0.05406   3.09808
    R3        2.80990   0.08450   0.06991   0.00000   0.06991   2.87981
    R4        3.04918   0.01695   0.05790   0.00000   0.05790   3.10708
    R5        3.30595   0.04080   0.05776   0.00000   0.05776   3.36371
    R6        1.82660   0.00623   0.00810   0.00000   0.00810   1.83469
    R7        1.92142   0.07453   0.19601   0.00000   0.19601   2.11743
    R8        2.44647   0.08826   0.25561   0.00000   0.25561   2.70209
    R9        1.81800   0.01200   0.00772   0.00000   0.00772   1.82572
   R10        1.81709   0.01204   0.00590   0.00000   0.00590   1.82299
    A1        1.79706   0.00115   0.00502   0.00000   0.00494   1.80199
    A2        2.04041  -0.00198  -0.00707   0.00000  -0.00717   2.03324
    A3        1.69148   0.00130  -0.00108   0.00000  -0.00111   1.69037
    A4        2.02424  -0.00173  -0.01958   0.00000  -0.01969   2.00456
    A5        1.78906   0.01279   0.01197   0.00000   0.01196   1.80102
    A6        2.07000  -0.00892   0.01461   0.00000   0.01468   2.08468
    A7        2.03884   0.01336   0.02587   0.00000   0.02587   2.06471
    A8        1.97052   0.01807   0.03564   0.00000   0.03564   2.00617
    A9        2.12146   0.02250   0.29911   0.00000   0.29911   2.42057
   A10        2.42260   0.08044   0.37006   0.00000   0.37006   2.79266
   A11        1.63464   0.03255   0.08842   0.00000   0.08736   1.72201
   A12        1.66182   0.00735   0.03592   0.00000   0.03388   1.69570
   A13        1.91933  -0.00148   0.01638   0.00000   0.01357   1.93290
    D1        1.31046  -0.00586  -0.01334   0.00000  -0.01332   1.29714
    D2       -0.93025  -0.00315   0.01337   0.00000   0.01335  -0.91690
    D3        3.13574   0.00804  -0.00023   0.00000  -0.00022   3.13552
    D4       -2.51788   0.00282   0.00801   0.00000   0.00797  -2.50990
    D5       -0.26712  -0.00003  -0.01084   0.00000  -0.01069  -0.27781
    D6        2.01597  -0.00238   0.00459   0.00000   0.00447   2.02044
    D7        1.43228  -0.00416  -0.01965   0.00000  -0.01966   1.41262
    D8       -3.01878  -0.00025  -0.01251   0.00000  -0.01258  -3.03135
    D9       -0.76382   0.00219  -0.01783   0.00000  -0.01776  -0.78158
   D10        0.62094   0.00148   0.06782   0.00000   0.06782   0.68876
   D11       -1.37210  -0.00330  -0.02111   0.00000  -0.02353  -1.39563
   D12        0.55570  -0.00010   0.00714   0.00000   0.00956   0.56526
   D13        1.69123   0.01986   0.07185   0.00000   0.07325   1.76448
         Item               Value     Threshold  Converged?
 Maximum Force            0.088259     0.000450     NO 
 RMS     Force            0.031944     0.000300     NO 
 Maximum Displacement     1.164683     0.001800     NO 
 RMS     Displacement     0.510531     0.001200     NO 
 Predicted change in Energy=-1.082646D-01
 GradGradGradGradGradGradGradGradGradGradGradGradGradGradGradGradGradGrad

                          Input orientation:                          
 ---------------------------------------------------------------------
 Center     Atomic      Atomic             Coordinates (Angstroms)
 Number     Number       Type             X           Y           Z
 ---------------------------------------------------------------------
      1         15           0       -0.746151    0.446951   -0.112524
      2          8           0        0.593085   -0.503351   -0.488262
      3          8           0       -0.983009    1.319746   -1.479955
      4          1           0       -1.283545    2.231756   -1.336698
      5          8           0       -0.657682    1.271251    1.166169
      6          8           0       -1.871870   -0.745767   -0.228994
      7          1           0       -2.274760   -1.586440    0.392663
      8         17           0        2.193823    0.273904   -0.531899
      9          8           0       -2.735327   -2.311269    1.535933
     10          1           0       -1.878004   -2.550949    1.911367
     11          1           0       -3.117397   -1.561525    2.007654
 ---------------------------------------------------------------------
                    Distance matrix (angstroms):
                    1          2          3          4          5
     1  P    0.000000
     2  O    1.684578   0.000000
     3  O    1.639433   2.605994   0.000000
     4  H    2.230005   3.423797   0.970879   0.000000
     5  O    1.523927   2.729610   2.666489   2.752929   0.000000
     6  O    1.644197   2.490379   2.573193   3.230909   2.736620
     7  H    2.593557   3.189615   3.690696   4.307182   3.373373
     8  Cl   2.974772   1.779998   3.476328   4.070991   3.465432
     9  O    3.779155   4.294678   5.034925   5.567653   4.157858
    10  H    3.790070   4.007138   5.223443   5.811847   4.080896
    11  H    3.761907   4.595325   5.002075   5.379283   3.844856
                    6          7          8          9         10
     6  O    0.000000
     7  H    1.120495   0.000000
     8  Cl   4.202539   4.927872   0.000000
     9  O    2.512235   1.429883   5.937640   0.000000
    10  H    2.799976   1.842323   5.525315   0.966127   0.000000
    11  H    2.686893   1.821772   6.166619   0.964684   1.588813
                   11
    11  H    0.000000
 Stoichiometry    ClH4O5P
 Framework group  C1[X(ClH4O5P)]
 Deg. of freedom    27
 Full point group                 C1      NOp   1
 Largest Abelian subgroup         C1      NOp   1
 Largest concise Abelian subgroup C1      NOp   1
                         Standard orientation:                         
 ---------------------------------------------------------------------
 Center     Atomic      Atomic             Coordinates (Angstroms)
 Number     Number       Type             X           Y           Z
 ---------------------------------------------------------------------
      1         15           0       -0.118141    0.567465    0.109547
      2          8           0        0.753084   -0.737010   -0.504552
      3          8           0        0.510894    1.850808   -0.693625
      4          1           0        0.581361    2.666206   -0.171355
      5          8           0       -0.146558    0.712439    1.626296
      6          8           0       -1.517388    0.267345   -0.700033
      7          1           0       -2.416426   -0.395302   -0.609828
      8         17           0        2.438481   -0.951105    0.026479
      9          8           0       -3.496554   -1.121371   -0.017617
     10          1           0       -3.000154   -1.886501    0.301074
     11          1           0       -3.674679   -0.505275    0.703016
 ---------------------------------------------------------------------
 Rotational constants (GHZ):      2.4241791      0.9252554      0.8045783
 Standard basis: 6-311G (5D, 7F)
 There are   119 symmetry adapted cartesian basis functions of A   symmetry.
 There are   119 symmetry adapted basis functions of A   symmetry.
   119 basis functions,   233 primitive gaussians,   119 cartesian basis functions
    38 alpha electrons       38 beta electrons
       nuclear repulsion energy       499.9851544776 Hartrees.



 Warning!  P  atom    1 may be hypervalent but has no d functions.



 NAtoms=   11 NActive=   11 NUniq=   11 SFac= 1.00D+00 NAtFMM=   60 NAOKFM=F Big=F
 Integral buffers will be    131072 words long.
 Raffenetti 2 integral format.
 Two-electron integral symmetry is turned on.
 One-electron integrals computed using PRISM.
 NBasis=   119 RedAO= T EigKep=  1.15D-02  NBF=   119
 NBsUse=   119 1.00D-06 EigRej= -1.00D+00 NBFU=   119
 Initial guess from the checkpoint file:  "H2ClPO4-h2o.chk"
 B after Tr=     0.000000    0.000000    0.000000
         Rot=    0.995274    0.075408   -0.013922    0.059583 Ang=  11.15 deg.
 ExpMin= 6.85D-02 ExpMax= 1.06D+05 ExpMxC= 3.62D+03 IAcc=2 IRadAn=         4 AccDes= 0.00D+00
 Harris functional with IExCor=  402 and IRadAn=       4 diagonalized for initial guess.
 HarFok:  IExCor=  402 AccDes= 0.00D+00 IRadAn=         4 IDoV= 1 UseB2=F ITyADJ=14
 ICtDFT=  3500011 ScaDFX=  1.000000  1.000000  1.000000  1.000000
 FoFCou: FMM=F IPFlag=           0 FMFlag=      100000 FMFlg1=           0
         NFxFlg=           0 DoJE=T BraDBF=F KetDBF=T FulRan=T
         wScrn=  0.000000 ICntrl=     500 IOpCl=  0 I1Cent=   200000004 NGrid=           0
         NMat0=    1 NMatS0=      1 NMatT0=    0 NMatD0=    1 NMtDS0=    0 NMtDT0=    0
 Petite list used in FoFCou.
 Keep R1 ints in memory in canonical form, NReq=26496552.
 Requested convergence on RMS density matrix=1.00D-08 within 128 cycles.
 Requested convergence on MAX density matrix=1.00D-06.
 Requested convergence on             energy=1.00D-06.
 No special actions if energy rises.
 Integral accuracy reduced to 1.0D-05 until final iterations.
 Initial convergence to 1.0D-05 achieved.  Increase integral accuracy.
 SCF Done:  E(RB3LYP) =  -1179.99309124     A.U. after   16 cycles
            NFock= 16  Conv=0.89D-08     -V/T= 2.0019
 Calling FoFJK, ICntrl=      2127 FMM=F ISym2X=0 I1Cent= 0 IOpClX= 0 NMat=1 NMatS=1 NMatT=0.
 ***** Axes restored to original set *****
 -------------------------------------------------------------------
 Center     Atomic                   Forces (Hartrees/Bohr)
 Number     Number              X              Y              Z
 -------------------------------------------------------------------
      1       15          -0.032284290   -0.031002759   -0.001205094
      2        8           0.002248419   -0.028293372   -0.005835232
      3        8          -0.002200124    0.015690482   -0.019024190
      4        1          -0.000281066    0.001250741   -0.003533062
      5        8           0.001689073    0.020793034    0.033276453
      6        8          -0.010355658   -0.020708643    0.010987545
      7        1           0.017101055    0.032576165   -0.019044487
      8       17           0.021509979    0.010408089   -0.001282114
      9        8           0.007193203    0.004922062   -0.013605006
     10        1           0.002216457   -0.007356828    0.009205235
     11        1          -0.006837049    0.001721028    0.010059952
 -------------------------------------------------------------------
 Cartesian Forces:  Max     0.033276453 RMS     0.016063962

 GradGradGradGradGradGradGradGradGradGradGradGradGradGradGradGradGradGrad
 Berny optimization.
 Using GEDIIS/GDIIS optimizer.
 FormGI is forming the generalized inverse of G from B-inverse, IUseBI=4.
 Internal  Forces:  Max     0.039266272 RMS     0.013308237
 Search for a local minimum.
 Step number   3 out of a maximum of   46
 All quantities printed in internal units (Hartrees-Bohrs-Radians)
 Mixed Optimization -- RFO/linear search
 Update second derivatives using D2CorX and points    2    3
 ITU=  0  1  0
 Use linear search instead of GDIIS.
     Eigenvalues ---    0.00230   0.01495   0.02850   0.03433   0.03459
     Eigenvalues ---    0.07125   0.11393   0.12443   0.12998   0.14316
     Eigenvalues ---    0.15963   0.16000   0.16417   0.20541   0.21466
     Eigenvalues ---    0.22133   0.24858   0.27269   0.32079   0.43509
     Eigenvalues ---    0.51532   0.51695   0.54524   0.55470   0.55473
     Eigenvalues ---    0.57128   0.86609
 RFO step:  Lambda=-1.52332153D-02 EMin= 2.30058985D-03
 Quartic linear search produced a step of  0.01449.
 Iteration  1 RMS(Cart)=  0.07135961 RMS(Int)=  0.00234269
 Iteration  2 RMS(Cart)=  0.00269941 RMS(Int)=  0.00103385
 Iteration  3 RMS(Cart)=  0.00000354 RMS(Int)=  0.00103384
 Iteration  4 RMS(Cart)=  0.00000001 RMS(Int)=  0.00103384
 Variable       Old X    -DE/DX   Delta X   Delta X   Delta X     New X
                                 (Linear)    (Quad)   (Total)
    R1        3.18339   0.03058   0.00077   0.06722   0.06799   3.25138
    R2        3.09808   0.02819   0.00078   0.05241   0.05319   3.15127
    R3        2.87981   0.03927   0.00101   0.04320   0.04422   2.92402
    R4        3.10708  -0.01430   0.00084  -0.02756  -0.02672   3.08036
    R5        3.36371   0.02392   0.00084   0.07083   0.07167   3.43538
    R6        1.83469   0.00074   0.00012   0.00121   0.00133   1.83602
    R7        2.11743  -0.03841   0.00284  -0.07083  -0.06799   2.04943
    R8        2.70209   0.00406   0.00370   0.01407   0.01777   2.71986
    R9        1.82572   0.00736   0.00011   0.01283   0.01294   1.83865
   R10        1.82299   0.00897   0.00009   0.01569   0.01577   1.83876
    A1        1.80199  -0.00177   0.00007  -0.00932  -0.00918   1.79281
    A2        2.03324   0.00124  -0.00010   0.00295   0.00282   2.03606
    A3        1.69037  -0.00235  -0.00002  -0.01313  -0.01312   1.67725
    A4        2.00456   0.00014  -0.00029   0.00346   0.00313   2.00769
    A5        1.80102   0.00339   0.00017   0.01663   0.01674   1.81776
    A6        2.08468  -0.00089   0.00021  -0.00248  -0.00234   2.08233
    A7        2.06471   0.00071   0.00037   0.00224   0.00261   2.06732
    A8        2.00617   0.00676   0.00052   0.03811   0.03863   2.04479
    A9        2.42057  -0.01611   0.00433  -0.09143  -0.08710   2.33348
   A10        2.79266   0.00785   0.00536   0.02861   0.03397   2.82663
   A11        1.72201   0.01315   0.00127   0.09117   0.09107   1.81307
   A12        1.69570   0.00442   0.00049   0.06753   0.06607   1.76177
   A13        1.93290  -0.00123   0.00020   0.00678   0.00335   1.93625
    D1        1.29714  -0.00165  -0.00019  -0.01947  -0.01969   1.27745
    D2       -0.91690  -0.00123   0.00019  -0.01850  -0.01830  -0.93520
    D3        3.13552   0.00091   0.00000  -0.00750  -0.00748   3.12804
    D4       -2.50990  -0.00078   0.00012  -0.00344  -0.00336  -2.51326
    D5       -0.27781  -0.00046  -0.00015  -0.00455  -0.00476  -0.28256
    D6        2.02044   0.00127   0.00006   0.00848   0.00862   2.02906
    D7        1.41262  -0.00055  -0.00028  -0.01858  -0.01879   1.39383
    D8       -3.03135  -0.00241  -0.00018  -0.02879  -0.02903  -3.06039
    D9       -0.78158   0.00020  -0.00026  -0.01070  -0.01097  -0.79255
   D10        0.68876  -0.00049   0.00098  -0.01220  -0.01122   0.67754
   D11       -1.39563  -0.00126  -0.00034  -0.02620  -0.02964  -1.42527
   D12        0.56526   0.00103   0.00014   0.01348   0.01671   0.58197
   D13        1.76448   0.01003   0.00106   0.11333   0.11512   1.87960
         Item               Value     Threshold  Converged?
 Maximum Force            0.039266     0.000450     NO 
 RMS     Force            0.013308     0.000300     NO 
 Maximum Displacement     0.156877     0.001800     NO 
 RMS     Displacement     0.072135     0.001200     NO 
 Predicted change in Energy=-8.096506D-03
 GradGradGradGradGradGradGradGradGradGradGradGradGradGradGradGradGradGrad

                          Input orientation:                          
 ---------------------------------------------------------------------
 Center     Atomic      Atomic             Coordinates (Angstroms)
 Number     Number       Type             X           Y           Z
 ---------------------------------------------------------------------
      1         15           0       -0.803330    0.440469   -0.115391
      2          8           0        0.555391   -0.550771   -0.478213
      3          8           0       -0.968786    1.357271   -1.498474
      4          1           0       -1.254005    2.279424   -1.387781
      5          8           0       -0.740698    1.248962    1.202423
      6          8           0       -1.922600   -0.733217   -0.279041
      7          1           0       -2.264607   -1.537231    0.363426
      8         17           0        2.206043    0.210912   -0.484451
      9          8           0       -2.664601   -2.282406    1.528015
     10          1           0       -1.822459   -2.566251    1.924131
     11          1           0       -3.081185   -1.582853    2.060811
 ---------------------------------------------------------------------
                    Distance matrix (angstroms):
                    1          2          3          4          5
     1  P    0.000000
     2  O    1.720558   0.000000
     3  O    1.667580   2.646634   0.000000
     4  H    2.281193   3.480120   0.971581   0.000000
     5  O    1.547326   2.782700   2.712674   2.834518   0.000000
     6  O    1.630056   2.492668   2.601330   3.279075   2.742382
     7  H    2.505173   3.103844   3.677494   4.319132   3.284675
     8  Cl   3.040597   1.817925   3.524475   4.131184   3.550545
     9  O    3.684991   4.170355   5.028188   5.594814   4.034598
    10  H    3.773412   3.935427   5.276079   5.896819   4.030747
    11  H    3.744104   4.553738   5.076916   5.490771   3.772783
                    6          7          8          9         10
     6  O    0.000000
     7  H    1.084514   0.000000
     8  Cl   4.240196   4.874588   0.000000
     9  O    2.493192   1.439288   5.830079   0.000000
    10  H    2.867753   1.920984   5.453689   0.972974   0.000000
    11  H    2.745744   1.884145   6.136020   0.973031   1.603167
                   11
    11  H    0.000000
 Stoichiometry    ClH4O5P
 Framework group  C1[X(ClH4O5P)]
 Deg. of freedom    27
 Full point group                 C1      NOp   1
 Largest Abelian subgroup         C1      NOp   1
 Largest concise Abelian subgroup C1      NOp   1
                         Standard orientation:                         
 ---------------------------------------------------------------------
 Center     Atomic      Atomic             Coordinates (Angstroms)
 Number     Number       Type             X           Y           Z
 ---------------------------------------------------------------------
      1         15           0       -0.159378    0.593156    0.107890
      2          8           0        0.736925   -0.730329   -0.528778
      3          8           0        0.529774    1.905079   -0.656800
      4          1           0        0.609705    2.726045   -0.143385
      5          8           0       -0.238020    0.700815    1.649462
      6          8           0       -1.520099    0.305824   -0.742382
      7          1           0       -2.346372   -0.386334   -0.622552
      8         17           0        2.448180   -0.969137    0.036401
      9          8           0       -3.377044   -1.197592   -0.029991
     10          1           0       -2.903566   -1.991533    0.273580
     11          1           0       -3.640435   -0.640569    0.723096
 ---------------------------------------------------------------------
 Rotational constants (GHZ):      2.3049097      0.9419342      0.8078677
 Standard basis: 6-311G (5D, 7F)
 There are   119 symmetry adapted cartesian basis functions of A   symmetry.
 There are   119 symmetry adapted basis functions of A   symmetry.
   119 basis functions,   233 primitive gaussians,   119 cartesian basis functions
    38 alpha electrons       38 beta electrons
       nuclear repulsion energy       495.9344346868 Hartrees.



 Warning!  P  atom    1 may be hypervalent but has no d functions.



 NAtoms=   11 NActive=   11 NUniq=   11 SFac= 1.00D+00 NAtFMM=   60 NAOKFM=F Big=F
 Integral buffers will be    131072 words long.
 Raffenetti 2 integral format.
 Two-electron integral symmetry is turned on.
 One-electron integrals computed using PRISM.
 NBasis=   119 RedAO= T EigKep=  1.21D-02  NBF=   119
 NBsUse=   119 1.00D-06 EigRej= -1.00D+00 NBFU=   119
 Initial guess from the checkpoint file:  "H2ClPO4-h2o.chk"
 B after Tr=     0.000000    0.000000    0.000000
         Rot=    0.999948   -0.007005    0.004598   -0.005847 Ang=  -1.17 deg.
 ExpMin= 6.85D-02 ExpMax= 1.06D+05 ExpMxC= 3.62D+03 IAcc=2 IRadAn=         4 AccDes= 0.00D+00
 Harris functional with IExCor=  402 and IRadAn=       4 diagonalized for initial guess.
 HarFok:  IExCor=  402 AccDes= 0.00D+00 IRadAn=         4 IDoV= 1 UseB2=F ITyADJ=14
 ICtDFT=  3500011 ScaDFX=  1.000000  1.000000  1.000000  1.000000
 FoFCou: FMM=F IPFlag=           0 FMFlag=      100000 FMFlg1=           0
         NFxFlg=           0 DoJE=T BraDBF=F KetDBF=T FulRan=T
         wScrn=  0.000000 ICntrl=     500 IOpCl=  0 I1Cent=   200000004 NGrid=           0
         NMat0=    1 NMatS0=      1 NMatT0=    0 NMatD0=    1 NMtDS0=    0 NMtDT0=    0
 Petite list used in FoFCou.
 Keep R1 ints in memory in canonical form, NReq=26496552.
 Requested convergence on RMS density matrix=1.00D-08 within 128 cycles.
 Requested convergence on MAX density matrix=1.00D-06.
 Requested convergence on             energy=1.00D-06.
 No special actions if energy rises.
 Integral accuracy reduced to 1.0D-05 until final iterations.
 Initial convergence to 1.0D-05 achieved.  Increase integral accuracy.
 SCF Done:  E(RB3LYP) =  -1180.00477469     A.U. after   14 cycles
            NFock= 14  Conv=0.36D-08     -V/T= 2.0020
 Calling FoFJK, ICntrl=      2127 FMM=F ISym2X=0 I1Cent= 0 IOpClX= 0 NMat=1 NMatS=1 NMatT=0.
 ***** Axes restored to original set *****
 -------------------------------------------------------------------
 Center     Atomic                   Forces (Hartrees/Bohr)
 Number     Number              X              Y              Z
 -------------------------------------------------------------------
      1       15          -0.013453268   -0.007037272    0.000580399
      2        8           0.004312489   -0.014350630   -0.003322587
      3        8           0.000065016    0.004134983   -0.008874196
      4        1           0.000166128   -0.000544721    0.000704264
      5        8           0.000311901    0.008662612    0.015113074
      6        8          -0.010841726   -0.017258872    0.003561559
      7        1           0.012547776    0.024416764   -0.013653227
      8       17           0.006037521    0.004377879   -0.000243049
      9        8           0.006535193    0.006095046   -0.001875685
     10        1          -0.003746157   -0.003947639    0.003895688
     11        1          -0.001934874   -0.004548150    0.004113760
 -------------------------------------------------------------------
 Cartesian Forces:  Max     0.024416764 RMS     0.008633930

 GradGradGradGradGradGradGradGradGradGradGradGradGradGradGradGradGradGrad
 Berny optimization.
 Using GEDIIS/GDIIS optimizer.
 FormGI is forming the generalized inverse of G from B-inverse, IUseBI=4.
 Internal  Forces:  Max     0.025009080 RMS     0.007033487
 Search for a local minimum.
 Step number   4 out of a maximum of   46
 All quantities printed in internal units (Hartrees-Bohrs-Radians)
 Mixed Optimization -- RFO/linear search
 Update second derivatives using D2CorX and points    3    4
 DE= -1.17D-02 DEPred=-8.10D-03 R= 1.44D+00
 TightC=F SS=  1.41D+00  RLast= 2.47D-01 DXNew= 8.4853D-01 7.3988D-01
 Trust test= 1.44D+00 RLast= 2.47D-01 DXMaxT set to 7.40D-01
 ITU=  1  0  1  0
 Use linear search instead of GDIIS.
     Eigenvalues ---    0.00230   0.01491   0.02836   0.03389   0.03459
     Eigenvalues ---    0.04978   0.10698   0.12255   0.12790   0.13437
     Eigenvalues ---    0.15169   0.16150   0.16827   0.19994   0.20845
     Eigenvalues ---    0.21793   0.24472   0.26475   0.32809   0.40753
     Eigenvalues ---    0.50415   0.51681   0.53720   0.54576   0.55474
     Eigenvalues ---    0.57602   0.84057
 RFO step:  Lambda=-5.62988667D-03 EMin= 2.29751842D-03
 Quartic linear search produced a step of  1.23545.
 Iteration  1 RMS(Cart)=  0.16656413 RMS(Int)=  0.01355870
 Iteration  2 RMS(Cart)=  0.02313226 RMS(Int)=  0.00564770
 Iteration  3 RMS(Cart)=  0.00032068 RMS(Int)=  0.00564242
 Iteration  4 RMS(Cart)=  0.00000343 RMS(Int)=  0.00564242
 Iteration  5 RMS(Cart)=  0.00000005 RMS(Int)=  0.00564242
 Variable       Old X    -DE/DX   Delta X   Delta X   Delta X     New X
                                 (Linear)    (Quad)   (Total)
    R1        3.25138   0.01469   0.08400   0.00963   0.09363   3.34501
    R2        3.15127   0.00873   0.06571  -0.01302   0.05269   3.20396
    R3        2.92402   0.01741   0.05463   0.00166   0.05629   2.98031
    R4        3.08036  -0.00479  -0.03301   0.00375  -0.02926   3.05110
    R5        3.43538   0.00731   0.08855  -0.01752   0.07103   3.50641
    R6        1.83602  -0.00049   0.00164  -0.00324  -0.00160   1.83442
    R7        2.04943  -0.02501  -0.08400  -0.03985  -0.12385   1.92558
    R8        2.71986   0.00597   0.02196   0.04032   0.06228   2.78214
    R9        1.83865  -0.00051   0.01599  -0.01402   0.00197   1.84062
   R10        1.83876  -0.00018   0.01949  -0.01531   0.00418   1.84294
    A1        1.79281  -0.00152  -0.01135  -0.00939  -0.02061   1.77220
    A2        2.03606   0.00072   0.00348   0.00340   0.00688   2.04293
    A3        1.67725  -0.00105  -0.01621  -0.00334  -0.01952   1.65773
    A4        2.00769   0.00110   0.00386   0.01320   0.01694   2.02463
    A5        1.81776   0.00033   0.02069  -0.01149   0.00889   1.82665
    A6        2.08233  -0.00008  -0.00290   0.00262  -0.00053   2.08181
    A7        2.06732  -0.00459   0.00323  -0.04194  -0.03871   2.02861
    A8        2.04479  -0.00140   0.04772  -0.05471  -0.00699   2.03780
    A9        2.33348  -0.01429  -0.10760  -0.10844  -0.21605   2.11743
   A10        2.82663   0.00755   0.04197   0.03087   0.07284   2.89947
   A11        1.81307   0.00874   0.11251   0.06349   0.16521   1.97828
   A12        1.76177   0.00353   0.08163   0.06421   0.13394   1.89571
   A13        1.93625  -0.00192   0.00414  -0.00118  -0.01724   1.91901
    D1        1.27745  -0.00026  -0.02433  -0.01097  -0.03547   1.24198
    D2       -0.93520  -0.00095  -0.02261  -0.02287  -0.04550  -0.98070
    D3        3.12804  -0.00047  -0.00924  -0.02547  -0.03452   3.09352
    D4       -2.51326  -0.00061  -0.00415  -0.00320  -0.00738  -2.52064
    D5       -0.28256  -0.00015  -0.00588   0.00252  -0.00357  -0.28613
    D6        2.02906   0.00087   0.01065   0.00626   0.01716   2.04622
    D7        1.39383  -0.00023  -0.02322  -0.02244  -0.04551   1.34832
    D8       -3.06039  -0.00207  -0.03587  -0.03527  -0.07124  -3.13162
    D9       -0.79255  -0.00029  -0.01355  -0.02557  -0.03917  -0.83172
   D10        0.67754  -0.00095  -0.01386  -0.07894  -0.09279   0.58475
   D11       -1.42527  -0.00142  -0.03662  -0.12288  -0.17497  -1.60024
   D12        0.58197   0.00065   0.02065  -0.07998  -0.04386   0.53811
   D13        1.87960   0.00748   0.14222   0.10305   0.24578   2.12538
         Item               Value     Threshold  Converged?
 Maximum Force            0.025009     0.000450     NO 
 RMS     Force            0.007033     0.000300     NO 
 Maximum Displacement     0.456777     0.001800     NO 
 RMS     Displacement     0.180655     0.001200     NO 
 Predicted change in Energy=-7.634942D-03
 GradGradGradGradGradGradGradGradGradGradGradGradGradGradGradGradGradGrad

                          Input orientation:                          
 ---------------------------------------------------------------------
 Center     Atomic      Atomic             Coordinates (Angstroms)
 Number     Number       Type             X           Y           Z
 ---------------------------------------------------------------------
      1         15           0       -0.923818    0.424271   -0.132105
      2          8           0        0.448750   -0.654567   -0.424391
      3          8           0       -0.913041    1.374826   -1.536002
      4          1           0       -1.161703    2.307623   -1.434131
      5          8           0       -0.939816    1.210360    1.235040
      6          8           0       -2.048054   -0.700977   -0.409155
      7          1           0       -2.270083   -1.410686    0.287498
      8         17           0        2.133485    0.116863   -0.326994
      9          8           0       -2.516568   -2.173695    1.522230
     10          1           0       -1.730519   -2.649535    1.845356
     11          1           0       -2.839469   -1.560175    2.208108
 ---------------------------------------------------------------------
                    Distance matrix (angstroms):
                    1          2          3          4          5
     1  P    0.000000
     2  O    1.770102   0.000000
     3  O    1.695464   2.684882   0.000000
     4  H    2.301929   3.519617   0.970732   0.000000
     5  O    1.577111   2.856532   2.776048   2.894425   0.000000
     6  O    1.614573   2.497281   2.620496   3.299677   2.754047
     7  H    2.314209   2.910421   3.595246   4.244802   3.088257
     8  Cl   3.078893   1.855512   3.510769   4.108947   3.616748
     9  O    3.467435   3.858781   4.951372   5.536962   3.744390
    10  H    3.742914   3.725703   5.319525   5.970931   3.987040
    11  H    3.617228   4.308429   5.132613   5.571415   3.497343
                    6          7          8          9         10
     6  O    0.000000
     7  H    1.018974   0.000000
     8  Cl   4.261559   4.701321   0.000000
     9  O    2.473591   1.472244   5.503570   0.000000
    10  H    2.996753   2.062232   5.225188   0.974016   0.000000
    11  H    2.866116   2.008803   5.828333   0.975243   1.596266
                   11
    11  H    0.000000
 Stoichiometry    ClH4O5P
 Framework group  C1[X(ClH4O5P)]
 Deg. of freedom    27
 Full point group                 C1      NOp   1
 Largest Abelian subgroup         C1      NOp   1
 Largest concise Abelian subgroup C1      NOp   1
                         Standard orientation:                         
 ---------------------------------------------------------------------
 Center     Atomic      Atomic             Coordinates (Angstroms)
 Number     Number       Type             X           Y           Z
 ---------------------------------------------------------------------
      1         15           0       -0.221607    0.629891    0.105804
      2          8           0        0.680718   -0.724114   -0.591150
      3          8           0        0.587552    1.959046   -0.567402
      4          1           0        0.675855    2.746666   -0.006887
      5          8           0       -0.393113    0.646337    1.673476
      6          8           0       -1.522515    0.427282   -0.828772
      7          1           0       -2.199744   -0.310608   -0.641188
      8         17           0        2.401108   -0.982033    0.054340
      9          8           0       -3.091977   -1.310522   -0.031602
     10          1           0       -2.682577   -2.189809    0.057580
     11          1           0       -3.373585   -0.984280    0.843249
 ---------------------------------------------------------------------
 Rotational constants (GHZ):      2.1622127      1.0090941      0.8446241
 Standard basis: 6-311G (5D, 7F)
 There are   119 symmetry adapted cartesian basis functions of A   symmetry.
 There are   119 symmetry adapted basis functions of A   symmetry.
   119 basis functions,   233 primitive gaussians,   119 cartesian basis functions
    38 alpha electrons       38 beta electrons
       nuclear repulsion energy       495.4347626395 Hartrees.



 Warning!  P  atom    1 may be hypervalent but has no d functions.



 NAtoms=   11 NActive=   11 NUniq=   11 SFac= 1.00D+00 NAtFMM=   60 NAOKFM=F Big=F
 Integral buffers will be    131072 words long.
 Raffenetti 2 integral format.
 Two-electron integral symmetry is turned on.
 One-electron integrals computed using PRISM.
 NBasis=   119 RedAO= T EigKep=  1.24D-02  NBF=   119
 NBsUse=   119 1.00D-06 EigRej= -1.00D+00 NBFU=   119
 Initial guess from the checkpoint file:  "H2ClPO4-h2o.chk"
 B after Tr=     0.000000    0.000000    0.000000
         Rot=    0.999783   -0.017175    0.007921   -0.008782 Ang=  -2.39 deg.
 ExpMin= 6.85D-02 ExpMax= 1.06D+05 ExpMxC= 3.62D+03 IAcc=2 IRadAn=         4 AccDes= 0.00D+00
 Harris functional with IExCor=  402 and IRadAn=       4 diagonalized for initial guess.
 HarFok:  IExCor=  402 AccDes= 0.00D+00 IRadAn=         4 IDoV= 1 UseB2=F ITyADJ=14
 ICtDFT=  3500011 ScaDFX=  1.000000  1.000000  1.000000  1.000000
 FoFCou: FMM=F IPFlag=           0 FMFlag=      100000 FMFlg1=           0
         NFxFlg=           0 DoJE=T BraDBF=F KetDBF=T FulRan=T
         wScrn=  0.000000 ICntrl=     500 IOpCl=  0 I1Cent=   200000004 NGrid=           0
         NMat0=    1 NMatS0=      1 NMatT0=    0 NMatD0=    1 NMtDS0=    0 NMtDT0=    0
 Petite list used in FoFCou.
 Keep R1 ints in memory in canonical form, NReq=26496552.
 Requested convergence on RMS density matrix=1.00D-08 within 128 cycles.
 Requested convergence on MAX density matrix=1.00D-06.
 Requested convergence on             energy=1.00D-06.
 No special actions if energy rises.
 Integral accuracy reduced to 1.0D-05 until final iterations.
 Initial convergence to 1.0D-05 achieved.  Increase integral accuracy.
 SCF Done:  E(RB3LYP) =  -1180.01325915     A.U. after   16 cycles
            NFock= 16  Conv=0.61D-08     -V/T= 2.0021
 Calling FoFJK, ICntrl=      2127 FMM=F ISym2X=0 I1Cent= 0 IOpClX= 0 NMat=1 NMatS=1 NMatT=0.
 ***** Axes restored to original set *****
 -------------------------------------------------------------------
 Center     Atomic                   Forces (Hartrees/Bohr)
 Number     Number              X              Y              Z
 -------------------------------------------------------------------
      1       15           0.011987532    0.017004506    0.004549766
      2        8           0.004244606    0.002558688    0.001207994
      3        8           0.000241668   -0.005732190    0.002268310
      4        1          -0.000405321    0.001228609    0.001953393
      5        8           0.000218096   -0.003531014   -0.005809879
      6        8          -0.010219201   -0.006077642   -0.011642114
      7        1          -0.001235322    0.001003082   -0.000709185
      8       17          -0.005154157   -0.001744379   -0.000241179
      9        8           0.005843061    0.001171865    0.011300965
     10        1          -0.004164344   -0.001818909   -0.001276083
     11        1          -0.001356618   -0.004062617   -0.001601990
 -------------------------------------------------------------------
 Cartesian Forces:  Max     0.017004506 RMS     0.005735127

 GradGradGradGradGradGradGradGradGradGradGradGradGradGradGradGradGradGrad
 Berny optimization.
 Using GEDIIS/GDIIS optimizer.
 FormGI is forming the generalized inverse of G from B-inverse, IUseBI=4.
 Internal  Forces:  Max     0.015250675 RMS     0.004090470
 Search for a local minimum.
 Step number   5 out of a maximum of   46
 All quantities printed in internal units (Hartrees-Bohrs-Radians)
 Mixed Optimization -- RFO/linear search
 Update second derivatives using D2CorX and points    4    5
 DE= -8.48D-03 DEPred=-7.63D-03 R= 1.11D+00
 TightC=F SS=  1.41D+00  RLast= 5.05D-01 DXNew= 1.2443D+00 1.5157D+00
 Trust test= 1.11D+00 RLast= 5.05D-01 DXMaxT set to 1.24D+00
 ITU=  1  1  0  1  0
 Use linear search instead of GDIIS.
     Eigenvalues ---    0.00230   0.01448   0.02775   0.03046   0.03459
     Eigenvalues ---    0.03562   0.10313   0.11974   0.13293   0.13820
     Eigenvalues ---    0.15308   0.16251   0.16770   0.19758   0.20850
     Eigenvalues ---    0.21763   0.24224   0.26378   0.33373   0.41734
     Eigenvalues ---    0.50821   0.53483   0.54467   0.55473   0.56737
     Eigenvalues ---    0.59232   0.85708
 RFO step:  Lambda=-2.14405492D-03 EMin= 2.29944827D-03
 Quartic linear search produced a step of  0.06043.
 Iteration  1 RMS(Cart)=  0.09535742 RMS(Int)=  0.00959010
 Iteration  2 RMS(Cart)=  0.00955509 RMS(Int)=  0.00116389
 Iteration  3 RMS(Cart)=  0.00012991 RMS(Int)=  0.00115999
 Iteration  4 RMS(Cart)=  0.00000023 RMS(Int)=  0.00115999
 Variable       Old X    -DE/DX   Delta X   Delta X   Delta X     New X
                                 (Linear)    (Quad)   (Total)
    R1        3.34501  -0.00136   0.00566   0.00588   0.01154   3.35655
    R2        3.20396  -0.00602   0.00318  -0.00531  -0.00213   3.20183
    R3        2.98031  -0.00680   0.00340  -0.00254   0.00086   2.98117
    R4        3.05110   0.01525  -0.00177   0.02615   0.02438   3.07548
    R5        3.50641  -0.00541   0.00429  -0.00874  -0.00445   3.50196
    R6        1.83442   0.00149  -0.00010   0.00278   0.00269   1.83710
    R7        1.92558   0.00805  -0.00748   0.00162  -0.00587   1.91972
    R8        2.78214   0.00945   0.00376   0.03426   0.03802   2.82016
    R9        1.84062  -0.00290   0.00012  -0.00391  -0.00379   1.83683
   R10        1.84294  -0.00323   0.00025  -0.00406  -0.00381   1.83913
    A1        1.77220   0.00039  -0.00125   0.00035  -0.00089   1.77131
    A2        2.04293  -0.00107   0.00042  -0.00369  -0.00328   2.03966
    A3        1.65773   0.00143  -0.00118   0.00506   0.00388   1.66161
    A4        2.02463   0.00050   0.00102   0.00172   0.00274   2.02737
    A5        1.82665  -0.00111   0.00054  -0.00585  -0.00532   1.82133
    A6        2.08181   0.00000  -0.00003   0.00238   0.00234   2.08415
    A7        2.02861  -0.00196  -0.00234  -0.00958  -0.01192   2.01669
    A8        2.03780  -0.00328  -0.00042  -0.01829  -0.01871   2.01909
    A9        2.11743  -0.00286  -0.01306  -0.03347  -0.04652   2.07091
   A10        2.89947   0.00396   0.00440   0.01766   0.02206   2.92153
   A11        1.97828   0.00273   0.00998   0.04161   0.04868   2.02696
   A12        1.89571   0.00103   0.00809   0.03889   0.04329   1.93900
   A13        1.91901   0.00093  -0.00104   0.02854   0.02344   1.94245
    D1        1.24198   0.00027  -0.00214  -0.00291  -0.00506   1.23692
    D2       -0.98070   0.00000  -0.00275  -0.00303  -0.00579  -0.98649
    D3        3.09352  -0.00048  -0.00209  -0.00769  -0.00977   3.08375
    D4       -2.52064   0.00083  -0.00045   0.00592   0.00548  -2.51516
    D5       -0.28613   0.00008  -0.00022   0.00256   0.00233  -0.28380
    D6        2.04622  -0.00053   0.00104   0.00188   0.00292   2.04915
    D7        1.34832  -0.00087  -0.00275  -0.01939  -0.02213   1.32619
    D8       -3.13162  -0.00022  -0.00430  -0.01845  -0.02276   3.12881
    D9       -0.83172  -0.00060  -0.00237  -0.01973  -0.02210  -0.85382
   D10        0.58475  -0.00168  -0.00561  -0.10532  -0.11093   0.47382
   D11       -1.60024  -0.00249  -0.01057  -0.14259  -0.15518  -1.75542
   D12        0.53811   0.00130  -0.00265  -0.04968  -0.05031   0.48780
   D13        2.12538   0.00391   0.01485   0.10004   0.11616   2.24154
         Item               Value     Threshold  Converged?
 Maximum Force            0.015251     0.000450     NO 
 RMS     Force            0.004090     0.000300     NO 
 Maximum Displacement     0.324014     0.001800     NO 
 RMS     Displacement     0.095754     0.001200     NO 
 Predicted change in Energy=-1.257537D-03
 GradGradGradGradGradGradGradGradGradGradGradGradGradGradGradGradGradGrad

                          Input orientation:                          
 ---------------------------------------------------------------------
 Center     Atomic      Atomic             Coordinates (Angstroms)
 Number     Number       Type             X           Y           Z
 ---------------------------------------------------------------------
      1         15           0       -0.947291    0.440941   -0.144135
      2          8           0        0.427121   -0.659032   -0.380720
      3          8           0       -0.889810    1.363151   -1.564348
      4          1           0       -1.130768    2.300069   -1.468404
      5          8           0       -0.987891    1.250184    1.209452
      6          8           0       -2.087651   -0.682320   -0.438310
      7          1           0       -2.292396   -1.368880    0.281902
      8         17           0        2.104269    0.119614   -0.257911
      9          8           0       -2.489961   -2.141895    1.543080
     10          1           0       -1.798453   -2.789186    1.761329
     11          1           0       -2.668008   -1.548337    2.293518
 ---------------------------------------------------------------------
                    Distance matrix (angstroms):
                    1          2          3          4          5
     1  P    0.000000
     2  O    1.776209   0.000000
     3  O    1.694338   2.687844   0.000000
     4  H    2.289915   3.516583   0.972153   0.000000
     5  O    1.577568   2.859372   2.777832   2.879859   0.000000
     6  O    1.627475   2.515539   2.624259   3.297174   2.767519
     7  H    2.294835   2.887685   3.583278   4.227782   3.069459
     8  Cl   3.070539   1.853158   3.495378   4.084745   3.604552
     9  O    3.449285   3.795953   4.949944   5.536017   3.724744
    10  H    3.845646   3.752214   5.397005   6.064445   4.156692
    11  H    3.586119   4.185958   5.149940   5.596909   3.439435
                    6          7          8          9         10
     6  O    0.000000
     7  H    1.015870   0.000000
     8  Cl   4.271748   4.673080   0.000000
     9  O    2.493616   1.492365   5.428162   0.000000
    10  H    3.059564   2.109491   5.269695   0.972009   0.000000
    11  H    2.923985   2.054237   5.662728   0.973226   1.605945
                   11
    11  H    0.000000
 Stoichiometry    ClH4O5P
 Framework group  C1[X(ClH4O5P)]
 Deg. of freedom    27
 Full point group                 C1      NOp   1
 Largest Abelian subgroup         C1      NOp   1
 Largest concise Abelian subgroup C1      NOp   1
                         Standard orientation:                         
 ---------------------------------------------------------------------
 Center     Atomic      Atomic             Coordinates (Angstroms)
 Number     Number       Type             X           Y           Z
 ---------------------------------------------------------------------
      1         15           0       -0.219086    0.645109    0.107433
      2          8           0        0.655928   -0.731205   -0.596153
      3          8           0        0.616906    1.956183   -0.565609
      4          1           0        0.718815    2.731931    0.011376
      5          8           0       -0.385196    0.657523    1.676182
      6          8           0       -1.535983    0.479861   -0.834453
      7          1           0       -2.193814   -0.265558   -0.625644
      8         17           0        2.370599   -1.003724    0.051791
      9          8           0       -3.047644   -1.325245   -0.013115
     10          1           0       -2.748152   -2.241542   -0.137639
     11          1           0       -3.222834   -1.135088    0.925138
 ---------------------------------------------------------------------
 Rotational constants (GHZ):      2.1210944      1.0272762      0.8522070
 Standard basis: 6-311G (5D, 7F)
 There are   119 symmetry adapted cartesian basis functions of A   symmetry.
 There are   119 symmetry adapted basis functions of A   symmetry.
   119 basis functions,   233 primitive gaussians,   119 cartesian basis functions
    38 alpha electrons       38 beta electrons
       nuclear repulsion energy       495.4451982347 Hartrees.



 Warning!  P  atom    1 may be hypervalent but has no d functions.



 NAtoms=   11 NActive=   11 NUniq=   11 SFac= 1.00D+00 NAtFMM=   60 NAOKFM=F Big=F
 Integral buffers will be    131072 words long.
 Raffenetti 2 integral format.
 Two-electron integral symmetry is turned on.
 One-electron integrals computed using PRISM.
 NBasis=   119 RedAO= T EigKep=  1.25D-02  NBF=   119
 NBsUse=   119 1.00D-06 EigRej= -1.00D+00 NBFU=   119
 Initial guess from the checkpoint file:  "H2ClPO4-h2o.chk"
 B after Tr=     0.000000    0.000000    0.000000
         Rot=    0.999993   -0.002445   -0.001092    0.002458 Ang=  -0.42 deg.
 ExpMin= 6.85D-02 ExpMax= 1.06D+05 ExpMxC= 3.62D+03 IAcc=2 IRadAn=         4 AccDes= 0.00D+00
 Harris functional with IExCor=  402 and IRadAn=       4 diagonalized for initial guess.
 HarFok:  IExCor=  402 AccDes= 0.00D+00 IRadAn=         4 IDoV= 1 UseB2=F ITyADJ=14
 ICtDFT=  3500011 ScaDFX=  1.000000  1.000000  1.000000  1.000000
 FoFCou: FMM=F IPFlag=           0 FMFlag=      100000 FMFlg1=           0
         NFxFlg=           0 DoJE=T BraDBF=F KetDBF=T FulRan=T
         wScrn=  0.000000 ICntrl=     500 IOpCl=  0 I1Cent=   200000004 NGrid=           0
[...]
 8e-09\Dipole=0.0392165,-1.574731,-0.2291385\Quadrupole=-1.3359898,3.02
 13906,-1.6854008,4.4127758,-2.7915281,-9.2819901\PG=C01 [X(Cl1H4O5P1)]
 \\@


 The earth never tires,
 The earth is rude, silent, incomprehensible at first,
 Nature is rude and incomprehensible at first,
 Be not discouraged, keep on,
 There are divine things well envelop'd,
 I swear to you there are divine things more beautiful than words can tell.
                                 -- Walt Whitman
 Job cpu time:       0 days  0 hours  1 minutes 38.2 seconds.
 File lengths (MBytes):  RWF=     12 Int=      0 D2E=      0 Chk=      5 Scr=      1
 Normal termination of Gaussian 09 at Fri Jun 23 05:04:53 2017.
 Initial command:
 /usr/local/gaussian/gaussian09.d1/g09/l1.exe "/scratch/sarariop/H2ClPO4-h2o.com/Gau-19221.inp" -scrdir="/scratch/sarariop/H2ClPO4-h2o.com/"
 Default is to use a total of  10 processors:
                               10 via shared-memory
                                1 via Linda
 Entering Link 1 = /usr/local/gaussian/gaussian09.d1/g09/l1.exe PID=     23966.
  
 Copyright (c) 1988,1990,1992,1993,1995,1998,2003,2009,2013,
            Gaussian, Inc.  All Rights Reserved.
  
 This is part of the Gaussian(R) 09 program.  It is based on
 the Gaussian(R) 03 system (copyright 2003, Gaussian, Inc.),
 the Gaussian(R) 98 system (copyright 1998, Gaussian, Inc.),
 the Gaussian(R) 94 system (copyright 1995, Gaussian, Inc.),
 the Gaussian 92(TM) system (copyright 1992, Gaussian, Inc.),
 the Gaussian 90(TM) system (copyright 1990, Gaussian, Inc.),
 the Gaussian 88(TM) system (copyright 1988, Gaussian, Inc.),
 the Gaussian 86(TM) system (copyright 1986, Carnegie Mellon
 University), and the Gaussian 82(TM) system (copyright 1983,
 Carnegie Mellon University). Gaussian is a federally registered
 trademark of Gaussian, Inc.
  
 This software contains proprietary and confidential information,
 including trade secrets, belonging to Gaussian, Inc.
  
 This software is provided under written license and may be
 used, copied, transmitted, or stored only in accord with that
 written license.
  
 The following legend is applicable only to US Government
 contracts under FAR:
  
                    RESTRICTED RIGHTS LEGEND
  
 Use, reproduction and disclosure by the US Government is
 subject to restrictions as set forth in subparagraphs (a)
 and (c) of the Commercial Computer Software - Restricted
 Rights clause in FAR 52.227-19.
  
 Gaussian, Inc.
 340 Quinnipiac St., Bldg. 40, Wallingford CT 06492
  
  
 ---------------------------------------------------------------
 Warning -- This program may not be used in any manner that
 competes with the business of Gaussian, Inc. or will provide
 assistance to any competitor of Gaussian, Inc.  The licensee
 of this program is prohibited from giving any competitor of
 Gaussian, Inc. access to this program.  By using this program,
 the user acknowledges that Gaussian, Inc. is engaged in the
 business of creating and licensing software in the field of
 computational chemistry and represents and warrants to the
 licensee that it is not a competitor of Gaussian, Inc. and that
 it will not use this program in any manner prohibited above.
 ---------------------------------------------------------------
  

 Cite this work as:
 Gaussian 09, Revision D.01,
 M. J. Frisch, G. W. Trucks, H. B. Schlegel, G. E. Scuseria, 
 M. A. Robb, J. R. Cheeseman, G. Scalmani, V. Barone, B. Mennucci, 
 G. A. Petersson, H. Nakatsuji, M. Caricato, X. Li, H. P. Hratchian, 
 A. F. Izmaylov, J. Bloino, G. Zheng, J. L. Sonnenberg, M. Hada, 
 M. Ehara, K. Toyota, R. Fukuda, J. Hasegawa, M. Ishida, T. Nakajima, 
 Y. Honda, O. Kitao, H. Nakai, T. Vreven, J. A. Montgomery, Jr., 
 J. E. Peralta, F. Ogliaro, M. Bearpark, J. J. Heyd, E. Brothers, 
 K. N. Kudin, V. N. Staroverov, T. Keith, R. Kobayashi, J. Normand, 
 K. Raghavachari, A. Rendell, J. C. Burant, S. S. Iyengar, J. Tomasi, 
 M. Cossi, N. Rega, J. M. Millam, M. Klene, J. E. Knox, J. B. Cross, 
 V. Bakken, C. Adamo, J. Jaramillo, R. Gomperts, R. E. Stratmann, 
 O. Yazyev, A. J. Austin, R. Cammi, C. Pomelli, J. W. Ochterski, 
 R. L. Martin, K. Morokuma, V. G. Zakrzewski, G. A. Voth, 
 P. Salvador, J. J. Dannenberg, S. Dapprich, A. D. Daniels, 
 O. Farkas, J. B. Foresman, J. V. Ortiz, J. Cioslowski, 
 and D. J. Fox, Gaussian, Inc., Wallingford CT, 2013.
 
 ******************************************
 Gaussian 09:  AM64L-G09RevD.01 24-Apr-2013
                23-Jun-2017 
 ******************************************
 %chk=H2ClPO4-h2o.chk
 Default route:  MaxDisk=70GB
 -------------------------------------------------
 # B3LYP/6-311G** geom=check guess=read output=wfx
 -------------------------------------------------
 1/29=2,38=1/1;
 2/12=2,40=1/2;
 3/5=4,6=6,7=101,11=2,14=-4,16=1,25=1,30=1,74=-5,116=-2/1,2,3;
 4/5=1/1;
 5/5=2,38=6/2;
 6/7=2,8=2,9=2,10=2,28=1/1;
 99/5=1,6=200,9=1/99;
 -------------------
 Title Card Required
 -------------------
 Structure from the checkpoint file:  "H2ClPO4-h2o.chk"
 Charge =  0 Multiplicity = 1
 Redundant internal coordinates found in file.
 P,0,-1.1151053366,0.8065819766,-0.0093133174
 O,0,-0.1153604316,-0.6453031196,0.3456952891
 O,0,-1.0491588799,0.8884807322,-1.6978306027
 H,0,-0.702530599,1.7229890881,-2.0598381678
 O,0,-0.6951074277,2.1164094832,0.7268895046
 O,0,-2.5369167073,0.0477697462,0.289491128
 H,0,-2.5320242518,-0.8538829778,0.7803883354
 Cl,0,1.6960656442,-0.4727882883,0.1503908812
 O,0,-2.0803804304,-2.1441571176,1.4157341092
 H,0,-1.1221336214,-2.2018315898,1.2609847884
 H,0,-2.5081847086,-2.9799599032,1.6328627921
 Recover connectivity data from disk.
                          Input orientation:                          
 ---------------------------------------------------------------------
 Center     Atomic      Atomic             Coordinates (Angstroms)
 Number     Number       Type             X           Y           Z
 ---------------------------------------------------------------------
      1         15           0       -1.115105    0.806582   -0.009313
      2          8           0       -0.115360   -0.645303    0.345695
      3          8           0       -1.049159    0.888481   -1.697831
      4          1           0       -0.702531    1.722989   -2.059838
      5          8           0       -0.695107    2.116409    0.726890
      6          8           0       -2.536917    0.047770    0.289491
      7          1           0       -2.532024   -0.853883    0.780388
      8         17           0        1.696066   -0.472788    0.150391
      9          8           0       -2.080380   -2.144157    1.415734
     10          1           0       -1.122134   -2.201832    1.260985
     11          1           0       -2.508185   -2.979960    1.632863
 ---------------------------------------------------------------------
                    Distance matrix (angstroms):
                    1          2          3          4          5
     1  P    0.000000
     2  O    1.798191   0.000000
     3  O    1.691788   2.720381   0.000000
     4  H    2.283566   3.426393   0.973450   0.000000
     5  O    1.560141   2.847538   2.740881   2.814371   0.000000
     6  O    1.639094   2.519413   2.621005   3.419164   2.804077
     7  H    2.321300   2.464290   3.372876   4.249024   3.492816
     8  Cl   3.092730   1.830074   3.578440   3.931897   3.571275
     9  O    3.416047   2.693112   4.467057   5.378930   4.532760
    10  H    3.265618   2.067396   4.279012   5.158309   4.372049
    11  H    4.356066   3.582322   5.309153   6.246131   5.484616
                    6          7          8          9         10
     6  O    0.000000
     7  H    1.026636   0.000000
     8  Cl   4.267138   4.291722   0.000000
     9  O    2.506271   1.507466   4.319272   0.000000
    10  H    2.829508   2.008913   3.487873   0.972374   0.000000
    11  H    3.312494   2.290739   5.114622   0.963705   1.632457
                   11
    11  H    0.000000
 Stoichiometry    ClH4O5P
 Framework group  C1[X(ClH4O5P)]
 Deg. of freedom    27
 Full point group                 C1      NOp   1
 Largest Abelian subgroup         C1      NOp   1
 Largest concise Abelian subgroup C1      NOp   1
                         Standard orientation:                         
 ---------------------------------------------------------------------
 Center     Atomic      Atomic             Coordinates (Angstroms)
 Number     Number       Type             X           Y           Z
 ---------------------------------------------------------------------
      1         15           0       -0.278010    0.894667    0.131839
      2          8           0        0.296661   -0.795867   -0.081094
      3          8           0        0.147331    1.610663   -1.340771
      4          1           0        0.729665    2.387667   -1.271803
      5          8           0        0.250984    1.636950    1.398023
      6          8           0       -1.858833    0.508357   -0.064099
      7          1           0       -2.145829   -0.476013   -0.012806
      8         17           0        2.104215   -1.072656   -0.008239
      9          8           0       -2.117899   -1.982187    0.042975
     10          1           0       -1.182807   -2.238982   -0.028936
     11          1           0       -2.748484   -2.680860   -0.164258
 ---------------------------------------------------------------------
 Rotational constants (GHZ):      1.6666720      1.3766606      0.9262608
 Standard basis: 6-311G(d,p) (5D, 7F)
 There are   173 symmetry adapted cartesian basis functions of A   symmetry.
 There are   166 symmetry adapted basis functions of A   symmetry.
   166 basis functions,   287 primitive gaussians,   173 cartesian basis functions
    38 alpha electrons       38 beta electrons
       nuclear repulsion energy       503.4220085927 Hartrees.
 NAtoms=   11 NActive=   11 NUniq=   11 SFac= 1.00D+00 NAtFMM=   60 NAOKFM=F Big=F
 Integral buffers will be    131072 words long.
 Raffenetti 2 integral format.
 Two-electron integral symmetry is turned on.
 One-electron integrals computed using PRISM.
 NBasis=   166 RedAO= T EigKep=  1.11D-02  NBF=   166
 NBsUse=   166 1.00D-06 EigRej= -1.00D+00 NBFU=   166
 Initial guess from the checkpoint file:  "H2ClPO4-h2o.chk"
 B after Tr=     0.000000    0.000000    0.000000
         Rot=    1.000000    0.000000    0.000000    0.000000 Ang=   0.00 deg.
 Keep R1 ints in memory in canonical form, NReq=98815874.
 Requested convergence on RMS density matrix=1.00D-08 within 128 cycles.
 Requested convergence on MAX density matrix=1.00D-06.
 Requested convergence on             energy=1.00D-06.
 No special actions if energy rises.
 SCF Done:  E(RB3LYP) =  -1180.24770304     A.U. after    1 cycles
            NFock=  1  Conv=0.25D-08     -V/T= 2.0028

 **********************************************************************

            Population analysis using the SCF density.

 **********************************************************************

 Orbital symmetries:
       Occupied  (A) (A) (A) (A) (A) (A) (A) (A) (A) (A) (A) (A)
                 (A) (A) (A) (A) (A) (A) (A) (A) (A) (A) (A) (A)
                 (A) (A) (A) (A) (A) (A) (A) (A) (A) (A) (A) (A)
                 (A) (A)
       Virtual   (A) (A) (A) (A) (A) (A) (A) (A) (A) (A) (A) (A)
                 (A) (A) (A) (A) (A) (A) (A) (A) (A) (A) (A) (A)
                 (A) (A) (A) (A) (A) (A) (A) (A) (A) (A) (A) (A)
                 (A) (A) (A) (A) (A) (A) (A) (A) (A) (A) (A) (A)
                 (A) (A) (A) (A) (A) (A) (A) (A) (A) (A) (A) (A)
                 (A) (A) (A) (A) (A) (A) (A) (A) (A) (A) (A) (A)
                 (A) (A) (A) (A) (A) (A) (A) (A) (A) (A) (A) (A)
                 (A) (A) (A) (A) (A) (A) (A) (A) (A) (A) (A) (A)
                 (A) (A) (A) (A) (A) (A) (A) (A) (A) (A) (A) (A)
                 (A) (A) (A) (A) (A) (A) (A) (A) (A) (A) (A) (A)
                 (A) (A) (A) (A) (A) (A) (A) (A)
 The electronic state is 1-A.
 Alpha  occ. eigenvalues -- -101.61564 -77.23487 -19.21525 -19.17394 -19.16715
 Alpha  occ. eigenvalues --  -19.15632 -19.11262  -9.52422  -7.29376  -7.27727
 Alpha  occ. eigenvalues --   -7.27682  -6.70906  -4.87286  -4.87128  -4.86915
 Alpha  occ. eigenvalues --   -1.08422  -1.06079  -1.03520  -1.02133  -0.96344
 Alpha  occ. eigenvalues --   -0.82294  -0.65367  -0.60131  -0.56324  -0.53518
 Alpha  occ. eigenvalues --   -0.47442  -0.45344  -0.43716  -0.42229  -0.40039
 Alpha  occ. eigenvalues --   -0.38612  -0.37642  -0.36427  -0.35713  -0.33818
 Alpha  occ. eigenvalues --   -0.32216  -0.30790  -0.30562
 Alpha virt. eigenvalues --   -0.14365  -0.01764   0.01100   0.03984   0.05202
 Alpha virt. eigenvalues --    0.09336   0.10036   0.11792   0.17823   0.18769
 Alpha virt. eigenvalues --    0.20511   0.23266   0.27268   0.29369   0.29593
 Alpha virt. eigenvalues --    0.32458   0.33946   0.36421   0.39027   0.44888
 Alpha virt. eigenvalues --    0.56042   0.56912   0.63515   0.67246   0.69922
 Alpha virt. eigenvalues --    0.70461   0.71614   0.74822   0.77992   0.79163
 Alpha virt. eigenvalues --    0.81135   0.82660   0.83137   0.83737   0.84628
 Alpha virt. eigenvalues --    0.87961   0.88942   0.89733   0.93811   0.95135
 Alpha virt. eigenvalues --    0.96542   0.98422   1.01637   1.03417   1.11403
 Alpha virt. eigenvalues --    1.14614   1.18423   1.21790   1.25951   1.28753
 Alpha virt. eigenvalues --    1.32358   1.33915   1.38495   1.46365   1.48264
 Alpha virt. eigenvalues --    1.50838   1.54664   1.59674   1.60276   1.65364
 Alpha virt. eigenvalues --    1.72754   1.80606   1.92658   1.93533   2.00825
 Alpha virt. eigenvalues --    2.06904   2.08990   2.11301   2.20796   2.34555
 Alpha virt. eigenvalues --    2.37754   2.46534   2.50624   2.74650   2.76048
 Alpha virt. eigenvalues --    2.78806   2.82574   2.83895   2.84394   2.86119
 Alpha virt. eigenvalues --    2.91062   2.95648   2.97093   2.99777   3.03620
 Alpha virt. eigenvalues --    3.05929   3.07289   3.10053   3.13113   3.14365
 Alpha virt. eigenvalues --    3.21564   3.25151   3.34760   3.41863   3.65997
 Alpha virt. eigenvalues --    3.68809   3.69202   3.78131   4.69686   4.70521
 Alpha virt. eigenvalues --    4.74746   4.78775   4.80042   4.81746   4.84899
 Alpha virt. eigenvalues --    4.89124   4.93495   5.00181   5.04162   5.14554
 Alpha virt. eigenvalues --    5.38221   5.52709   5.63460   6.83797   9.37300
 Alpha virt. eigenvalues --   13.73923  13.77418  13.93918  25.35911  25.42085
 Alpha virt. eigenvalues --   25.78922  49.68787  49.75219  49.76568  49.81974
 Alpha virt. eigenvalues --   49.85013 162.83033 215.29954
          Condensed to atoms (all electrons):
               1          2          3          4          5          6
     1  P   12.484399   0.174822   0.274499  -0.021917   0.533002   0.319448
     2  O    0.174822   8.391944  -0.022365  -0.000191  -0.018667  -0.028341
     3  O    0.274499  -0.022365   8.017358   0.318698  -0.027159  -0.026675
     4  H   -0.021917  -0.000191   0.318698   0.385697  -0.002799   0.000070
     5  O    0.533002  -0.018667  -0.027159  -0.002799   8.081553  -0.018769
     6  O    0.319448  -0.028341  -0.026675   0.000070  -0.018769   8.073274
     7  H   -0.036969   0.003352  -0.001171  -0.000124  -0.002188   0.292068
     8  Cl  -0.037504   0.073885   0.002065   0.000349   0.000231   0.001877
     9  O   -0.000204  -0.008913  -0.000025  -0.000005  -0.000022  -0.042134
    10  H   -0.002458   0.020135  -0.000018  -0.000002  -0.000136   0.004900
    11  H    0.000856   0.000069   0.000006   0.000000   0.000009   0.002283
               7          8          9         10         11
     1  P   -0.036969  -0.037504  -0.000204  -0.002458   0.000856
     2  O    0.003352   0.073885  -0.008913   0.020135   0.000069
     3  O   -0.001171   0.002065  -0.000025  -0.000018   0.000006
     4  H   -0.000124   0.000349  -0.000005  -0.000002   0.000000
     5  O   -0.002188   0.000231  -0.000022  -0.000136   0.000009
     6  O    0.292068   0.001877  -0.042134   0.004900   0.002283
     7  H    0.290205  -0.000175   0.093516  -0.013992  -0.006292
     8  Cl  -0.000175  16.816397   0.000628  -0.003381   0.000032
     9  O    0.093516   0.000628   7.847047   0.309469   0.319974
    10  H   -0.013992  -0.003381   0.309469   0.392148  -0.017464
    11  H   -0.006292   0.000032   0.319974  -0.017464   0.407612
 Mulliken charges:
               1
     1  P    1.312028
     2  O   -0.585730
     3  O   -0.535214
     4  H    0.320223
     5  O   -0.545055
     6  O   -0.578001
     7  H    0.381770
     8  Cl   0.145597
     9  O   -0.519332
    10  H    0.310798
    11  H    0.292916
 Sum of Mulliken charges =   0.00000
 Mulliken charges with hydrogens summed into heavy atoms:
               1
     1  P    1.312028
     2  O   -0.585730
     3  O   -0.214991
     5  O   -0.545055
     6  O   -0.196232
     8  Cl   0.145597
     9  O    0.084382
 Electronic spatial extent (au):  <R**2>=           1247.8351
 Charge=              0.0000 electrons
 Dipole moment (field-independent basis, Debye):
    X=             -0.6354    Y=             -3.3078    Z=             -2.2415  Tot=              4.0459
 Quadrupole moment (field-independent basis, Debye-Ang):
   XX=            -47.0684   YY=            -42.9695   ZZ=            -61.3797
   XY=             10.1436   XZ=             -1.2257   YZ=             -4.4511
 Traceless Quadrupole moment (field-independent basis, Debye-Ang):
   XX=              3.4041   YY=              7.5031   ZZ=            -10.9071
   XY=             10.1436   XZ=             -1.2257   YZ=             -4.4511
 Octapole moment (field-independent basis, Debye-Ang**2):
  XXX=            -11.6652  YYY=            -22.0705  ZZZ=             -5.4074  XYY=            -19.2688
  XXY=            -27.9310  XXZ=             -4.8025  XZZ=             -1.9375  YZZ=             -6.9552
  YYZ=            -18.9895  XYZ=             -9.4849
 Hexadecapole moment (field-independent basis, Debye-Ang**3):
 XXXX=           -587.7590 YYYY=           -454.0886 ZZZZ=           -203.1670 XXXY=             76.5367
 XXXZ=              8.0295 YYYX=            107.1079 YYYZ=            -31.0830 ZZZX=             -3.8034
 ZZZY=            -12.3535 XXYY=           -141.1477 XXZZ=           -152.8002 YYZZ=           -137.2245
 XXYZ=              4.2494 YYXZ=             -4.2605 ZZXY=              8.7299
 N-N= 5.034220085927D+02 E-N=-3.807666397869D+03  KE= 1.176951681523D+03
 1\1\GINC-INDIO\SP\RB3LYP\6-311G(d,p)\Cl1H4O5P1\SARARIOP\23-Jun-2017\0\
 \# B3LYP/6-311G** geom=check guess=read output=wfx\\Title Card Require
 d\\0,1\P,0,-1.1151053366,0.8065819766,-0.0093133174\O,0,-0.1153604316,
 -0.6453031196,0.3456952891\O,0,-1.0491588799,0.8884807322,-1.697830602
 7\H,0,-0.702530599,1.7229890881,-2.0598381678\O,0,-0.6951074277,2.1164
 094832,0.7268895046\O,0,-2.5369167073,0.0477697462,0.289491128\H,0,-2.
 5320242518,-0.8538829778,0.7803883354\Cl,0,1.6960656442,-0.4727882883,
 0.1503908812\O,0,-2.0803804304,-2.1441571176,1.4157341092\H,0,-1.12213
 36214,-2.2018315898,1.2609847884\H,0,-2.5081847086,-2.9799599032,1.632
 8627921\\Version=AM64L-G09RevD.01\State=1-A\HF=-1180.247703\RMSD=2.535
 e-09\Dipole=0.0392145,-1.5747308,-0.2291384\Quadrupole=-1.3359928,3.02
 13925,-1.6853997,4.4127775,-2.7915281,-9.2819896\PG=C01 [X(Cl1H4O5P1)]
 \\@

 Writing a WFNX file to "H2ClPO4-h2o.wfx"


 ACTORS ARE SO FORTUNATE.  THEY CAN CHOOSE WHETHER
 THEY WILL APPEAR IN A TRAGEDY OR IN COMEDY,
 WHETHER THEY WILL SUFFER OF MAKE MERRY,
 LAUGH OR SHED TEARS.  BUT IN REAL LIFE IT IS DIFFERENT.
 MOST MEN AND WOMEN ARE FORCED TO PERFORM
 PARTS FOR WHICH THEY HAVE NO QUALIFICATIONS.
 THE WORLD IS A STAGE, BUT THE PLAY IS BADLY CAST.

                                   -- OSCAR WILDE
 Job cpu time:       0 days  0 hours  0 minutes 25.9 seconds.
 File lengths (MBytes):  RWF=     12 Int=      0 D2E=      0 Chk=      5 Scr=      1
 Normal termination of Gaussian 09 at Fri Jun 23 05:04:56 2017.
