 Entering Gaussian System, Link 0=g09
 Initial command:
 /usr/local/gaussian/gaussian09.d1/g09/l1.exe "/scratch/sarariop/H2FPO4-A.com/Gau-8468.inp" -scrdir="/scratch/sarariop/H2FPO4-A.com/"
 Default is to use a total of  10 processors:
                               10 via shared-memory
                                1 via Linda
 Entering Link 1 = /usr/local/gaussian/gaussian09.d1/g09/l1.exe PID=      8469.
  
 Copyright (c) 1988,1990,1992,1993,1995,1998,2003,2009,2013,
            Gaussian, Inc.  All Rights Reserved.
  
 This is part of the Gaussian(R) 09 program.  It is based on
 the Gaussian(R) 03 system (copyright 2003, Gaussian, Inc.),
 the Gaussian(R) 98 system (copyright 1998, Gaussian, Inc.),
 the Gaussian(R) 94 system (copyright 1995, Gaussian, Inc.),
 the Gaussian 92(TM) system (copyright 1992, Gaussian, Inc.),
 the Gaussian 90(TM) system (copyright 1990, Gaussian, Inc.),
 the Gaussian 88(TM) system (copyright 1988, Gaussian, Inc.),
 the Gaussian 86(TM) system (copyright 1986, Carnegie Mellon
 University), and the Gaussian 82(TM) system (copyright 1983,
 Carnegie Mellon University). Gaussian is a federally registered
 trademark of Gaussian, Inc.
  
 This software contains proprietary and confidential information,
 including trade secrets, belonging to Gaussian, Inc.
  
 This software is provided under written license and may be
 used, copied, transmitted, or stored only in accord with that
 written license.
  
 The following legend is applicable only to US Government
 contracts under FAR:
  
                    RESTRICTED RIGHTS LEGEND
  
 Use, reproduction and disclosure by the US Government is
 subject to restrictions as set forth in subparagraphs (a)
 and (c) of the Commercial Computer Software - Restricted
 Rights clause in FAR 52.227-19.
  
 Gaussian, Inc.
 340 Quinnipiac St., Bldg. 40, Wallingford CT 06492
  
  
 ---------------------------------------------------------------
 Warning -- This program may not be used in any manner that
 competes with the business of Gaussian, Inc. or will provide
 assistance to any competitor of Gaussian, Inc.  The licensee
 of this program is prohibited from giving any competitor of
 Gaussian, Inc. access to this program.  By using this program,
 the user acknowledges that Gaussian, Inc. is engaged in the
 business of creating and licensing software in the field of
 computational chemistry and represents and warrants to the
 licensee that it is not a competitor of Gaussian, Inc. and that
 it will not use this program in any manner prohibited above.
 ---------------------------------------------------------------
  

 Cite this work as:
 Gaussian 09, Revision D.01,
 M. J. Frisch, G. W. Trucks, H. B. Schlegel, G. E. Scuseria, 
 M. A. Robb, J. R. Cheeseman, G. Scalmani, V. Barone, B. Mennucci, 
 G. A. Petersson, H. Nakatsuji, M. Caricato, X. Li, H. P. Hratchian, 
 A. F. Izmaylov, J. Bloino, G. Zheng, J. L. Sonnenberg, M. Hada, 
 M. Ehara, K. Toyota, R. Fukuda, J. Hasegawa, M. Ishida, T. Nakajima, 
 Y. Honda, O. Kitao, H. Nakai, T. Vreven, J. A. Montgomery, Jr., 
 J. E. Peralta, F. Ogliaro, M. Bearpark, J. J. Heyd, E. Brothers, 
 K. N. Kudin, V. N. Staroverov, T. Keith, R. Kobayashi, J. Normand, 
 K. Raghavachari, A. Rendell, J. C. Burant, S. S. Iyengar, J. Tomasi, 
 M. Cossi, N. Rega, J. M. Millam, M. Klene, J. E. Knox, J. B. Cross, 
 V. Bakken, C. Adamo, J. Jaramillo, R. Gomperts, R. E. Stratmann, 
 O. Yazyev, A. J. Austin, R. Cammi, C. Pomelli, J. W. Ochterski, 
 R. L. Martin, K. Morokuma, V. G. Zakrzewski, G. A. Voth, 
 P. Salvador, J. J. Dannenberg, S. Dapprich, A. D. Daniels, 
 O. Farkas, J. B. Foresman, J. V. Ortiz, J. Cioslowski, 
 and D. J. Fox, Gaussian, Inc., Wallingford CT, 2013.
 
 ******************************************
 Gaussian 09:  AM64L-G09RevD.01 24-Apr-2013
                23-Jun-2017 
 ******************************************
 %chk=H2FPO4-A.chk
 Default route:  MaxDisk=70GB
 -----------------------------------------
 # opt freq b3lyp/6-311g geom=connectivity
 -----------------------------------------
 1/14=-1,18=20,19=15,26=3,38=1,57=2/1,3;
 2/9=110,12=2,17=6,18=5,40=1/2;
 3/5=4,6=6,11=2,16=1,25=1,30=1,71=1,74=-5/1,2,3;
 4//1;
 5/5=2,38=5/2;
 6/7=2,8=2,9=2,10=2,28=1/1;
 7//1,2,3,16;
 1/14=-1,18=20,19=15,26=3/3(2);
 2/9=110/2;
 99//99;
 2/9=110/2;
 3/5=4,6=6,11=2,16=1,25=1,30=1,71=1,74=-5/1,2,3;
 4/5=5,16=3,69=1/1;
 5/5=2,38=5/2;
 7//1,2,3,16;
 1/14=-1,18=20,19=15,26=3/3(-5);
 2/9=110/2;
 6/7=2,8=2,9=2,10=2,19=2,28=1/1;
 99/9=1/99;
 -------------------
 Title Card Required
 -------------------
 Symbolic Z-matrix:
 Charge = -1 Multiplicity = 1
 P                    -0.18293   0.        0. 
 F                     0.816    -1.18287  -0.26153 
 O                    -1.52248  -0.86255  -0.35238 
 O                     0.0531    0.92928  -1.27079 
 O                    -0.10174   0.64156   1.31187 
 O                    -2.64944   0.05663  -0.24993 
 H                    -3.02108  -0.22322   0.60106 
 
 Add virtual bond connecting atoms O6         and O3         Dist= 2.76D+00.

 GradGradGradGradGradGradGradGradGradGradGradGradGradGradGradGradGradGrad
 Berny optimization.
 Initialization pass.
                           ----------------------------
                           !    Initial Parameters    !
                           ! (Angstroms and Degrees)  !
 --------------------------                            --------------------------
 ! Name  Definition              Value          Derivative Info.                !
 --------------------------------------------------------------------------------
 ! R1    R(1,2)                  1.5702         estimate D2E/DX2                !
 ! R2    R(1,3)                  1.6317         estimate D2E/DX2                !
 ! R3    R(1,4)                  1.5919         estimate D2E/DX2                !
 ! R4    R(1,5)                  1.4626         estimate D2E/DX2                !
 ! R5    R(3,6)                  1.4579         estimate D2E/DX2                !
 ! R6    R(6,7)                  0.9698         estimate D2E/DX2                !
 ! A1    A(2,1,3)               95.0532         estimate D2E/DX2                !
 ! A2    A(2,1,4)              102.2672         estimate D2E/DX2                !
 ! A3    A(2,1,5)              116.3933         estimate D2E/DX2                !
 ! A4    A(3,1,4)              104.9453         estimate D2E/DX2                !
 ! A5    A(3,1,5)              118.1084         estimate D2E/DX2                !
 ! A6    A(4,1,5)              116.8546         estimate D2E/DX2                !
 ! A7    A(1,3,6)              106.6272         estimate D2E/DX2                !
 ! A8    A(3,6,7)              100.1339         estimate D2E/DX2                !
 ! D1    D(2,1,3,6)           -177.115          estimate D2E/DX2                !
 ! D2    D(4,1,3,6)            -72.9703         estimate D2E/DX2                !
 ! D3    D(5,1,3,6)             59.3005         estimate D2E/DX2                !
 ! D4    D(1,3,6,7)           -103.9422         estimate D2E/DX2                !
 --------------------------------------------------------------------------------
 Trust Radius=3.00D-01 FncErr=1.00D-07 GrdErr=1.00D-06
 Number of steps in this run=     28 maximum allowed number of steps=    100.
 GradGradGradGradGradGradGradGradGradGradGradGradGradGradGradGradGradGrad

                          Input orientation:                          
 ---------------------------------------------------------------------
 Center     Atomic      Atomic             Coordinates (Angstroms)
 Number     Number       Type             X           Y           Z
 ---------------------------------------------------------------------
      1         15           0       -0.182927    0.000000    0.000000
      2          9           0        0.815999   -1.182873   -0.261533
      3          8           0       -1.522478   -0.862545   -0.352383
      4          8           0        0.053101    0.929275   -1.270793
      5          8           0       -0.101739    0.641557    1.311867
      6          8           0       -2.649445    0.056626   -0.249932
      7          1           0       -3.021082   -0.223221    0.601056
 ---------------------------------------------------------------------
                    Distance matrix (angstroms):
                    1          2          3          4          5
     1  P    0.000000
     2  F    1.570172   0.000000
     3  O    1.631734   2.362062   0.000000
     4  O    1.591910   2.462070   2.556667   0.000000
     5  O    1.462594   2.578057   2.655287   2.603246   0.000000
     6  O    2.479795   3.680461   1.457884   3.017852   3.045023
     7  H    2.909677   4.048232   1.887749   3.779242   3.126605
                    6          7
     6  O    0.000000
     7  H    0.969850   0.000000
 Stoichiometry    FHO4P(1-)
 Framework group  C1[X(FHO4P)]
 Deg. of freedom    15
 Full point group                 C1      NOp   1
 Largest Abelian subgroup         C1      NOp   1
 Largest concise Abelian subgroup C1      NOp   1
                         Standard orientation:                         
 ---------------------------------------------------------------------
 Center     Atomic      Atomic             Coordinates (Angstroms)
 Number     Number       Type             X           Y           Z
 ---------------------------------------------------------------------
      1         15           0       -0.380291    0.141504   -0.003525
      2          9           0       -1.414726   -0.858424   -0.632436
      3          8           0        0.934378   -0.730080   -0.421308
      4          8           0       -0.565462   -0.116886    1.556322
      5          8           0       -0.459429    1.529690   -0.457240
      6          8           0        2.090216   -0.029756    0.125513
      7          1           0        2.439270    0.379513   -0.681499
 ---------------------------------------------------------------------
 Rotational constants (GHZ):      4.4288917      2.6070982      2.5046311
 Standard basis: 6-311G (5D, 7F)
 There are    89 symmetry adapted cartesian basis functions of A   symmetry.
 There are    89 symmetry adapted basis functions of A   symmetry.
    89 basis functions,   175 primitive gaussians,    89 cartesian basis functions
    29 alpha electrons       29 beta electrons
       nuclear repulsion energy       347.6369796970 Hartrees.



 Warning!  P  atom    1 may be hypervalent but has no d functions.



 NAtoms=    7 NActive=    7 NUniq=    7 SFac= 1.00D+00 NAtFMM=   60 NAOKFM=F Big=F
 Integral buffers will be    131072 words long.
 Raffenetti 2 integral format.
 Two-electron integral symmetry is turned on.
 One-electron integrals computed using PRISM.
 NBasis=    89 RedAO= T EigKep=  1.59D-02  NBF=    89
 NBsUse=    89 1.00D-06 EigRej= -1.00D+00 NBFU=    89
 ExpMin= 6.85D-02 ExpMax= 7.75D+04 ExpMxC= 2.65D+03 IAcc=2 IRadAn=         4 AccDes= 0.00D+00
 Harris functional with IExCor=  402 and IRadAn=       4 diagonalized for initial guess.
 HarFok:  IExCor=  402 AccDes= 0.00D+00 IRadAn=         4 IDoV= 1 UseB2=F ITyADJ=14
 ICtDFT=  3500011 ScaDFX=  1.000000  1.000000  1.000000  1.000000
 FoFCou: FMM=F IPFlag=           0 FMFlag=      100000 FMFlg1=           0
         NFxFlg=           0 DoJE=T BraDBF=F KetDBF=T FulRan=T
         wScrn=  0.000000 ICntrl=     500 IOpCl=  0 I1Cent=   200000004 NGrid=           0
         NMat0=    1 NMatS0=      1 NMatT0=    0 NMatD0=    1 NMtDS0=    0 NMtDT0=    0
 Petite list used in FoFCou.
 Keep R1 ints in memory in canonical form, NReq=8976443.
 Requested convergence on RMS density matrix=1.00D-08 within 128 cycles.
 Requested convergence on MAX density matrix=1.00D-06.
 Requested convergence on             energy=1.00D-06.
 No special actions if energy rises.
 Integral accuracy reduced to 1.0D-05 until final iterations.
 EnCoef did     1 forward-backward iterations
 Initial convergence to 1.0D-05 achieved.  Increase integral accuracy.
 SCF Done:  E(RB3LYP) =  -742.633331761     A.U. after   16 cycles
            NFock= 16  Conv=0.93D-08     -V/T= 2.0004

 **********************************************************************

            Population analysis using the SCF density.

 **********************************************************************

 Orbital symmetries:
       Occupied  (A) (A) (A) (A) (A) (A) (A) (A) (A) (A) (A) (A)
                 (A) (A) (A) (A) (A) (A) (A) (A) (A) (A) (A) (A)
                 (A) (A) (A) (A) (A)
       Virtual   (A) (A) (A) (A) (A) (A) (A) (A) (A) (A) (A) (A)
                 (A) (A) (A) (A) (A) (A) (A) (A) (A) (A) (A) (A)
                 (A) (A) (A) (A) (A) (A) (A) (A) (A) (A) (A) (A)
                 (A) (A) (A) (A) (A) (A) (A) (A) (A) (A) (A) (A)
                 (A) (A) (A) (A) (A) (A) (A) (A) (A) (A) (A) (A)
 The electronic state is 1-A.
 Alpha  occ. eigenvalues --  -77.04606 -24.51213 -19.05633 -19.03969 -18.91358
 Alpha  occ. eigenvalues --  -18.85813  -6.54446  -4.70596  -4.70491  -4.70199
 Alpha  occ. eigenvalues --   -1.07950  -1.01044  -0.85630  -0.78965  -0.72887
 Alpha  occ. eigenvalues --   -0.45448  -0.38371  -0.35801  -0.31703  -0.29582
 Alpha  occ. eigenvalues --   -0.27647  -0.24251  -0.20905  -0.18220  -0.15908
 Alpha  occ. eigenvalues --   -0.14771  -0.12040  -0.06501  -0.05777
 Alpha virt. eigenvalues --    0.11403   0.16647   0.24568   0.28702   0.29659
 Alpha virt. eigenvalues --    0.32291   0.36785   0.41116   0.47570   0.50863
 Alpha virt. eigenvalues --    0.56502   0.85346   0.86699   0.92584   0.93803
 Alpha virt. eigenvalues --    0.97022   0.99794   1.01056   1.02457   1.05219
 Alpha virt. eigenvalues --    1.09715   1.16132   1.20408   1.25473   1.28540
 Alpha virt. eigenvalues --    1.30517   1.35894   1.43411   1.47250   1.59019
 Alpha virt. eigenvalues --    1.63909   1.67039   1.72007   1.93346   2.28307
 Alpha virt. eigenvalues --    4.55707   4.82550   4.87437   4.93725   4.96935
 Alpha virt. eigenvalues --    4.98233   5.01793   5.05760   5.07779   5.11613
 Alpha virt. eigenvalues --    5.13377   5.34898   6.22774   6.23691   6.25996
 Alpha virt. eigenvalues --    6.87971  13.88464  13.90335  14.00723  49.81762
 Alpha virt. eigenvalues --   49.87010  49.97208  50.06649  66.84488 162.95826
          Condensed to atoms (all electrons):
               1          2          3          4          5          6
     1  P   12.854979   0.001351  -0.020223   0.424569   0.250620  -0.022185
     2  F    0.001351   9.615640  -0.033769  -0.060902  -0.043866   0.001082
     3  O   -0.020223  -0.033769   8.691194  -0.075941  -0.059999  -0.000681
     4  O    0.424569  -0.060902  -0.075941   8.589947  -0.076984   0.000321
     5  O    0.250620  -0.043866  -0.059999  -0.076984   8.706482   0.002736
     6  O   -0.022185   0.001082  -0.000681   0.000321   0.002736   8.164251
     7  H   -0.009219  -0.000339  -0.033791  -0.000984   0.004824   0.210109
               7
     1  P   -0.009219
     2  F   -0.000339
     3  O   -0.033791
     4  O   -0.000984
     5  O    0.004824
     6  O    0.210109
     7  H    0.464049
 Mulliken charges:
               1
     1  P    1.520108
     2  F   -0.479197
     3  O   -0.466790
     4  O   -0.800026
     5  O   -0.783813
     6  O   -0.355633
     7  H    0.365351
 Sum of Mulliken charges =  -1.00000
 Mulliken charges with hydrogens summed into heavy atoms:
               1
     1  P    1.520108
     2  F   -0.479197
     3  O   -0.466790
     4  O   -0.800026
     5  O   -0.783813
     6  O    0.009718
 Electronic spatial extent (au):  <R**2>=            570.6348
 Charge=             -1.0000 electrons
 Dipole moment (field-independent basis, Debye):
    X=              3.2659    Y=             -0.4637    Z=             -4.1267  Tot=              5.2831
 Quadrupole moment (field-independent basis, Debye-Ang):
   XX=            -43.8389   YY=            -51.9061   ZZ=            -51.4343
   XY=              3.1460   XZ=             -2.1934   YZ=              0.9942
 Traceless Quadrupole moment (field-independent basis, Debye-Ang):
   XX=              5.2209   YY=             -2.8464   ZZ=             -2.3745
   XY=              3.1460   XZ=             -2.1934   YZ=              0.9942
 Octapole moment (field-independent basis, Debye-Ang**2):
  XXX=             12.5011  YYY=            -16.0058  ZZZ=            -19.8940  XYY=              4.9506
  XXY=              8.1146  XXZ=            -10.0657  XZZ=              8.2070  YZZ=             -0.6209
  YYZ=              4.0750  XYZ=             -2.1263
 Hexadecapole moment (field-independent basis, Debye-Ang**3):
 XXXX=           -305.3040 YYYY=           -192.9668 ZZZZ=           -183.4787 XXXY=             16.9955
 XXXZ=            -21.9565 YYYX=             12.7862 YYYZ=              8.5207 ZZZX=             10.2994
 ZZZY=              4.4315 XXYY=            -87.2951 XXZZ=            -81.9260 YYZZ=            -59.0227
 XXYZ=             -4.1142 YYXZ=             -1.5826 ZZXY=              2.5744
 N-N= 3.476369796970D+02 E-N=-2.471422634638D+03  KE= 7.423546884014D+02
 Calling FoFJK, ICntrl=      2127 FMM=F ISym2X=0 I1Cent= 0 IOpClX= 0 NMat=1 NMatS=1 NMatT=0.
 ***** Axes restored to original set *****
 -------------------------------------------------------------------
 Center     Atomic                   Forces (Hartrees/Bohr)
 Number     Number              X              Y              Z
 -------------------------------------------------------------------
      1       15           0.019686757    0.112520732   -0.129874530
      2        9           0.056752284   -0.087055303    0.002498243
      3        8          -0.047385943   -0.067485530   -0.002274501
      4        8           0.000449263    0.001146899    0.000689242
      5        8          -0.000601632    0.027693081    0.124957154
      6        8          -0.023151349    0.013673949   -0.004653629
      7        1          -0.005749380   -0.000493828    0.008658022
 -------------------------------------------------------------------
 Cartesian Forces:  Max     0.129874530 RMS     0.055533299

 GradGradGradGradGradGradGradGradGradGradGradGradGradGradGradGradGradGrad
 Berny optimization.
 FormGI is forming the generalized inverse of G from B-inverse, IUseBI=4.
 Internal  Forces:  Max     0.124199158 RMS     0.048157411
 Search for a local minimum.
 Step number   1 out of a maximum of   28
 All quantities printed in internal units (Hartrees-Bohrs-Radians)
 Mixed Optimization -- RFO/linear search
 Second derivative matrix not updated -- first step.
 The second derivative matrix:
                          R1        R2        R3        R4        R5
           R1           0.57447
           R2           0.00000   0.45541
           R3           0.00000   0.00000   0.52815
           R4           0.00000   0.00000   0.00000   0.90529
           R5           0.00000   0.00000   0.00000   0.00000   0.37230
           R6           0.00000   0.00000   0.00000   0.00000   0.00000
           A1           0.00000   0.00000   0.00000   0.00000   0.00000
           A2           0.00000   0.00000   0.00000   0.00000   0.00000
           A3           0.00000   0.00000   0.00000   0.00000   0.00000
           A4           0.00000   0.00000   0.00000   0.00000   0.00000
           A5           0.00000   0.00000   0.00000   0.00000   0.00000
           A6           0.00000   0.00000   0.00000   0.00000   0.00000
           A7           0.00000   0.00000   0.00000   0.00000   0.00000
           A8           0.00000   0.00000   0.00000   0.00000   0.00000
           D1           0.00000   0.00000   0.00000   0.00000   0.00000
           D2           0.00000   0.00000   0.00000   0.00000   0.00000
           D3           0.00000   0.00000   0.00000   0.00000   0.00000
           D4           0.00000   0.00000   0.00000   0.00000   0.00000
                          R6        A1        A2        A3        A4
           R6           0.53408
           A1           0.00000   0.25000
           A2           0.00000   0.00000   0.25000
           A3           0.00000   0.00000   0.00000   0.25000
           A4           0.00000   0.00000   0.00000   0.00000   0.25000
           A5           0.00000   0.00000   0.00000   0.00000   0.00000
           A6           0.00000   0.00000   0.00000   0.00000   0.00000
           A7           0.00000   0.00000   0.00000   0.00000   0.00000
           A8           0.00000   0.00000   0.00000   0.00000   0.00000
           D1           0.00000   0.00000   0.00000   0.00000   0.00000
           D2           0.00000   0.00000   0.00000   0.00000   0.00000
           D3           0.00000   0.00000   0.00000   0.00000   0.00000
           D4           0.00000   0.00000   0.00000   0.00000   0.00000
                          A5        A6        A7        A8        D1
           A5           0.25000
           A6           0.00000   0.25000
           A7           0.00000   0.00000   0.25000
           A8           0.00000   0.00000   0.00000   0.16000
           D1           0.00000   0.00000   0.00000   0.00000   0.02993
           D2           0.00000   0.00000   0.00000   0.00000   0.00000
           D3           0.00000   0.00000   0.00000   0.00000   0.00000
           D4           0.00000   0.00000   0.00000   0.00000   0.00000
                          D2        D3        D4
           D2           0.02993
           D3           0.00000   0.02993
           D4           0.00000   0.00000   0.00529
 ITU=  0
     Eigenvalues ---    0.00529   0.02993   0.15027   0.16000   0.18287
     Eigenvalues ---    0.25000   0.25000   0.25000   0.25000   0.37230
     Eigenvalues ---    0.45541   0.52815   0.53408   0.57447   0.90529
 RFO step:  Lambda=-7.45167315D-02 EMin= 5.29108731D-03
 Linear search not attempted -- first point.
 Maximum step size (   0.300) exceeded in Quadratic search.
    -- Step size scaled by   0.791
 Iteration  1 RMS(Cart)=  0.09976966 RMS(Int)=  0.00598290
 Iteration  2 RMS(Cart)=  0.00625099 RMS(Int)=  0.00372809
 Iteration  3 RMS(Cart)=  0.00005965 RMS(Int)=  0.00372788
 Iteration  4 RMS(Cart)=  0.00000069 RMS(Int)=  0.00372788
 Variable       Old X    -DE/DX   Delta X   Delta X   Delta X     New X
                                 (Linear)    (Quad)   (Total)
    R1        2.96720   0.10127   0.00000   0.12341   0.12341   3.09060
    R2        3.08353   0.09098   0.00000   0.13578   0.13578   3.21931
    R3        3.00827   0.00019   0.00000   0.00024   0.00024   3.00852
    R4        2.76390   0.12420   0.00000   0.10025   0.10025   2.86415
    R5        2.75500   0.03091   0.00000   0.05472   0.05472   2.80972
    R6        1.83275   0.00994   0.00000   0.01292   0.01292   1.84567
    A1        1.65899  -0.02394   0.00000  -0.07216  -0.07669   1.58230
    A2        1.78490   0.02666   0.00000   0.07791   0.07633   1.86123
    A3        2.03145  -0.01450   0.00000  -0.06593  -0.07571   1.95573
    A4        1.83164   0.02670   0.00000   0.07866   0.07778   1.90942
    A5        2.06138  -0.04306   0.00000  -0.10624  -0.10865   1.95273
    A6        2.03950   0.02827   0.00000   0.08597   0.08495   2.12445
    A7        1.86100   0.01886   0.00000   0.04596   0.04596   1.90696
    A8        1.74767   0.00555   0.00000   0.01872   0.01872   1.76638
    D1       -3.09124  -0.02798   0.00000  -0.09583  -0.08837   3.10358
    D2       -1.27357  -0.00296   0.00000  -0.02326  -0.02249  -1.29606
    D3        1.03499   0.02635   0.00000   0.08433   0.07610   1.11109
    D4       -1.81413   0.00071   0.00000   0.00701   0.00701  -1.80713
         Item               Value     Threshold  Converged?
 Maximum Force            0.124199     0.000450     NO 
 RMS     Force            0.048157     0.000300     NO 
 Maximum Displacement     0.189242     0.001800     NO 
 RMS     Displacement     0.101457     0.001200     NO 
 Predicted change in Energy=-3.922495D-02
 GradGradGradGradGradGradGradGradGradGradGradGradGradGradGradGradGradGrad

                          Input orientation:                          
 ---------------------------------------------------------------------
 Center     Atomic      Atomic             Coordinates (Angstroms)
 Number     Number       Type             X           Y           Z
 ---------------------------------------------------------------------
      1         15           0       -0.134016    0.076122   -0.065163
      2          9           0        0.808228   -1.250843   -0.226796
      3          8           0       -1.530829   -0.857057   -0.348518
      4          8           0        0.153244    0.996331   -1.332161
      5          8           0       -0.100798    0.629325    1.345526
      6          8           0       -2.732187    0.011780   -0.236454
      7          1           0       -3.072211   -0.246840    0.641848
 ---------------------------------------------------------------------
                    Distance matrix (angstroms):
                    1          2          3          4          5
     1  P    0.000000
     2  F    1.635477   0.000000
     3  O    1.703584   2.375094   0.000000
     4  O    1.592038   2.588557   2.690483   0.000000
     5  O    1.515645   2.614107   2.669102   2.714634   0.000000
     6  O    2.604606   3.758836   1.486841   3.239695   3.131809
     7  H    3.039269   4.101265   1.931074   3.980671   3.176810
                    6          7
     6  O    0.000000
     7  H    0.976686   0.000000
 Stoichiometry    FHO4P(1-)
 Framework group  C1[X(FHO4P)]
 Deg. of freedom    15
 Full point group                 C1      NOp   1
 Largest Abelian subgroup         C1      NOp   1
 Largest concise Abelian subgroup C1      NOp   1
                         Standard orientation:                         
 ---------------------------------------------------------------------
 Center     Atomic      Atomic             Coordinates (Angstroms)
 Number     Number       Type             X           Y           Z
 ---------------------------------------------------------------------
      1         15           0       -0.418287    0.159367   -0.003989
      2          9           0       -1.357405   -1.133141   -0.353654
      3          8           0        0.978316   -0.814329   -0.064106
      4          8           0       -0.725647    0.550436    1.508354
      5          8           0       -0.435219    1.191936   -1.113357
      6          8           0        2.177654    0.033543    0.166977
      7          1           0        2.530125    0.115071   -0.740234
 ---------------------------------------------------------------------
 Rotational constants (GHZ):      4.1101822      2.4187134      2.3746335
 Standard basis: 6-311G (5D, 7F)
 There are    89 symmetry adapted cartesian basis functions of A   symmetry.
 There are    89 symmetry adapted basis functions of A   symmetry.
    89 basis functions,   175 primitive gaussians,    89 cartesian basis functions
    29 alpha electrons       29 beta electrons
       nuclear repulsion energy       337.0863088466 Hartrees.



 Warning!  P  atom    1 may be hypervalent but has no d functions.



 NAtoms=    7 NActive=    7 NUniq=    7 SFac= 1.00D+00 NAtFMM=   60 NAOKFM=F Big=F
 Integral buffers will be    131072 words long.
 Raffenetti 2 integral format.
 Two-electron integral symmetry is turned on.
 One-electron integrals computed using PRISM.
 NBasis=    89 RedAO= T EigKep=  1.82D-02  NBF=    89
 NBsUse=    89 1.00D-06 EigRej= -1.00D+00 NBFU=    89
 Initial guess from the checkpoint file:  "H2FPO4-A.chk"
 B after Tr=     0.000000    0.000000    0.000000
         Rot=    0.977864    0.207685    0.024094   -0.008317 Ang=  24.16 deg.
 ExpMin= 6.85D-02 ExpMax= 7.75D+04 ExpMxC= 2.65D+03 IAcc=2 IRadAn=         4 AccDes= 0.00D+00
 Harris functional with IExCor=  402 and IRadAn=       4 diagonalized for initial guess.
 HarFok:  IExCor=  402 AccDes= 0.00D+00 IRadAn=         4 IDoV= 1 UseB2=F ITyADJ=14
 ICtDFT=  3500011 ScaDFX=  1.000000  1.000000  1.000000  1.000000
 FoFCou: FMM=F IPFlag=           0 FMFlag=      100000 FMFlg1=           0
         NFxFlg=           0 DoJE=T BraDBF=F KetDBF=T FulRan=T
         wScrn=  0.000000 ICntrl=     500 IOpCl=  0 I1Cent=   200000004 NGrid=           0
         NMat0=    1 NMatS0=      1 NMatT0=    0 NMatD0=    1 NMtDS0=    0 NMtDT0=    0
 Petite list used in FoFCou.
 Keep R1 ints in memory in canonical form, NReq=8976443.
 Requested convergence on RMS density matrix=1.00D-08 within 128 cycles.
 Requested convergence on MAX density matrix=1.00D-06.
 Requested convergence on             energy=1.00D-06.
 No special actions if energy rises.
 Integral accuracy reduced to 1.0D-05 until final iterations.
 Initial convergence to 1.0D-05 achieved.  Increase integral accuracy.
 SCF Done:  E(RB3LYP) =  -742.674538325     A.U. after   15 cycles
            NFock= 15  Conv=0.53D-08     -V/T= 2.0011
 Calling FoFJK, ICntrl=      2127 FMM=F ISym2X=0 I1Cent= 0 IOpClX= 0 NMat=1 NMatS=1 NMatT=0.
 ***** Axes restored to original set *****
 -------------------------------------------------------------------
 Center     Atomic                   Forces (Hartrees/Bohr)
 Number     Number              X              Y              Z
 -------------------------------------------------------------------
      1       15           0.009736857    0.069226867   -0.061592446
      2        9           0.028956034   -0.046213553    0.000416895
      3        8          -0.029412828   -0.035189087   -0.003337813
      4        8          -0.000404516   -0.005717642    0.006643879
      5        8          -0.001299729    0.011464099    0.056839844
      6        8          -0.009091184    0.007332676   -0.002652131
      7        1           0.001515366   -0.000903360    0.003681773
 -------------------------------------------------------------------
 Cartesian Forces:  Max     0.069226867 RMS     0.028760620

 GradGradGradGradGradGradGradGradGradGradGradGradGradGradGradGradGradGrad
 Berny optimization.
 Using GEDIIS/GDIIS optimizer.
 FormGI is forming the generalized inverse of G from B-inverse, IUseBI=4.
 Internal  Forces:  Max     0.057060230 RMS     0.022616068
 Search for a local minimum.
 Step number   2 out of a maximum of   28
 All quantities printed in internal units (Hartrees-Bohrs-Radians)
 Mixed Optimization -- RFO/linear search
 Update second derivatives using D2CorX and points    1    2
 DE= -4.12D-02 DEPred=-3.92D-02 R= 1.05D+00
 TightC=F SS=  1.41D+00  RLast= 3.26D-01 DXNew= 5.0454D-01 9.7676D-01
 Trust test= 1.05D+00 RLast= 3.26D-01 DXMaxT set to 5.05D-01
 The second derivative matrix:
                          R1        R2        R3        R4        R5
           R1           0.51184
           R2          -0.04988   0.41638
           R3           0.01215   0.01149   0.53047
           R4          -0.07066  -0.05487   0.01734   0.82839
           R5          -0.00761  -0.00452   0.00544  -0.00550   0.37474
           R6          -0.00283  -0.00177   0.00180  -0.00222   0.00071
           A1           0.01151   0.00837  -0.00430   0.01138  -0.00036
           A2          -0.00572  -0.00291   0.00536  -0.00316   0.00291
           A3           0.02400   0.02019  -0.00188   0.02923   0.00527
           A4          -0.01069  -0.00756   0.00455  -0.01014   0.00080
           A5           0.00987   0.00577  -0.00731   0.00695  -0.00337
           A6          -0.01295  -0.00945   0.00473  -0.01288   0.00031
           A7           0.00827   0.00931   0.00543   0.01479   0.00696
           A8           0.00777   0.00772   0.00247   0.01184   0.00431
           D1          -0.02424  -0.02324  -0.00544  -0.03523  -0.01154
           D2           0.00043   0.00032  -0.00015   0.00043   0.00000
           D3           0.02340   0.02239   0.00516   0.03393   0.01106
           D4          -0.00354  -0.00334  -0.00065  -0.00504  -0.00157
                          R6        A1        A2        A3        A4
           R6           0.53428
           A1          -0.00003   0.24880
           A2           0.00087  -0.00083   0.25334
           A3           0.00182  -0.00564   0.00471   0.24245
           A4           0.00018   0.00087   0.00127   0.00557   0.24948
           A5          -0.00099   0.00057  -0.00399  -0.00698  -0.00117
           A6           0.00001   0.00140   0.00083   0.00628  -0.00104
           A7           0.00225  -0.00463   0.00714   0.00100   0.00513
           A8           0.00141  -0.00319   0.00432  -0.00062   0.00343
           D1          -0.00380   0.00895  -0.01143   0.00327  -0.00950
           D2           0.00000  -0.00005  -0.00002  -0.00020   0.00004
           D3           0.00364  -0.00859   0.01095  -0.00321   0.00913
           D4          -0.00052   0.00124  -0.00154   0.00056  -0.00131
                          A5        A6        A7        A8        D1
           A5           0.25466
           A6          -0.00052   0.24838
           A7          -0.00941   0.00505   0.25947
           A8          -0.00580   0.00349   0.00494   0.16241
           D1           0.01551  -0.00982  -0.01204  -0.00561   0.04254
           D2           0.00001   0.00006  -0.00015  -0.00011   0.00030
           D3          -0.01486   0.00944   0.01148   0.00533  -0.01197
           D4           0.00210  -0.00137  -0.00155  -0.00070   0.00153
                          D2        D3        D4
           D2           0.02993
           D3          -0.00029   0.04129
           D4           0.00004  -0.00145   0.00547
 ITU=  1  0
 Use linear search instead of GDIIS.
     Eigenvalues ---    0.00528   0.02994   0.15285   0.16047   0.19805
     Eigenvalues ---    0.24288   0.25000   0.25000   0.27665   0.37011
     Eigenvalues ---    0.38799   0.52269   0.53497   0.53830   0.84896
 RFO step:  Lambda=-7.54934008D-03 EMin= 5.28240618D-03
 Quartic linear search produced a step of  0.97847.
 Iteration  1 RMS(Cart)=  0.11427703 RMS(Int)=  0.07106095
 Iteration  2 RMS(Cart)=  0.07436743 RMS(Int)=  0.02449928
 Iteration  3 RMS(Cart)=  0.03522083 RMS(Int)=  0.00585216
 Iteration  4 RMS(Cart)=  0.00157669 RMS(Int)=  0.00554942
 Iteration  5 RMS(Cart)=  0.00000271 RMS(Int)=  0.00554942
 Iteration  6 RMS(Cart)=  0.00000000 RMS(Int)=  0.00554942
 Variable       Old X    -DE/DX   Delta X   Delta X   Delta X     New X
                                 (Linear)    (Quad)   (Total)
    R1        3.09060   0.05413   0.12075   0.04448   0.16523   3.25583
    R2        3.21931   0.04647   0.13285   0.04449   0.17734   3.39665
    R3        3.00852  -0.00866   0.00024  -0.03231  -0.03208   2.97644
    R4        2.86415   0.05706   0.09809   0.01090   0.10899   2.97315
    R5        2.80972   0.00995   0.05354  -0.01060   0.04294   2.85266
    R6        1.84567   0.00302   0.01264  -0.00360   0.00904   1.85471
    A1        1.58230  -0.00731  -0.07504   0.01253  -0.06762   1.51468
    A2        1.86123   0.00602   0.07469  -0.02870   0.04340   1.90463
    A3        1.95573  -0.00711  -0.07408  -0.00445  -0.09319   1.86255
    A4        1.90942   0.00914   0.07611   0.00181   0.07572   1.98514
    A5        1.95273  -0.01491  -0.10631   0.01146  -0.09730   1.85543
    A6        2.12445   0.01000   0.08312   0.00683   0.08718   2.21163
    A7        1.90696  -0.00194   0.04497  -0.06801  -0.02304   1.88392
    A8        1.76638  -0.00388   0.01831  -0.06786  -0.04955   1.71683
    D1        3.10358  -0.00723  -0.08647  -0.02634  -0.10110   3.00248
    D2       -1.29606  -0.00239  -0.02200  -0.05207  -0.07350  -1.36956
    D3        1.11109   0.00668   0.07446  -0.02926   0.03292   1.14400
    D4       -1.80713   0.00319   0.00686   0.47910   0.48596  -1.32117
         Item               Value     Threshold  Converged?
 Maximum Force            0.057060     0.000450     NO 
 RMS     Force            0.022616     0.000300     NO 
 Maximum Displacement     0.448892     0.001800     NO 
 RMS     Displacement     0.187450     0.001200     NO 
 Predicted change in Energy=-1.277827D-02
 GradGradGradGradGradGradGradGradGradGradGradGradGradGradGradGradGradGrad

                          Input orientation:                          
 ---------------------------------------------------------------------
 Center     Atomic      Atomic             Coordinates (Angstroms)
 Number     Number       Type             X           Y           Z
 ---------------------------------------------------------------------
      1         15           0       -0.158744    0.136164   -0.122593
      2          9           0        0.815183   -1.283475   -0.189802
      3          8           0       -1.568106   -0.938980   -0.420113
      4          8           0        0.198654    1.065484   -1.343027
      5          8           0       -0.237728    0.559544    1.390632
      6          8           0       -2.823163   -0.115896   -0.258423
      7          1           0       -2.834668   -0.064023    0.721607
 ---------------------------------------------------------------------
                    Distance matrix (angstroms):
                    1          2          3          4          5
     1  P    0.000000
     2  F    1.722912   0.000000
     3  O    1.797430   2.419047   0.000000
     4  O    1.575064   2.688428   2.826851   0.000000
     5  O    1.573321   2.646340   2.700792   2.814124   0.000000
     6  O    2.679760   3.821716   1.509563   3.421024   3.140076
     7  H    2.813062   3.954636   1.916574   3.839211   2.753276
                    6          7
     6  O    0.000000
     7  H    0.981469   0.000000
 Stoichiometry    FHO4P(1-)
 Framework group  C1[X(FHO4P)]
 Deg. of freedom    15
 Full point group                 C1      NOp   1
 Largest Abelian subgroup         C1      NOp   1
 Largest concise Abelian subgroup C1      NOp   1
                         Standard orientation:                         
 ---------------------------------------------------------------------
 Center     Atomic      Atomic             Coordinates (Angstroms)
 Number     Number       Type             X           Y           Z
 ---------------------------------------------------------------------
      1         15           0       -0.436976    0.181210   -0.089556
      2          9           0       -1.332069   -1.205425    0.404894
      3          8           0        1.020215   -0.658578    0.544561
      4          8           0       -0.882670    1.418997    0.776509
      5          8           0       -0.335382    0.118505   -1.658341
      6          8           0        2.231929    0.150364    0.149413
      7          1           0        2.270518   -0.103628   -0.797835
 ---------------------------------------------------------------------
 Rotational constants (GHZ):      3.8570059      2.3186317      2.2591034
 Standard basis: 6-311G (5D, 7F)
 There are    89 symmetry adapted cartesian basis functions of A   symmetry.
 There are    89 symmetry adapted basis functions of A   symmetry.
    89 basis functions,   175 primitive gaussians,    89 cartesian basis functions
    29 alpha electrons       29 beta electrons
       nuclear repulsion energy       328.3211391355 Hartrees.



 Warning!  P  atom    1 may be hypervalent but has no d functions.



 NAtoms=    7 NActive=    7 NUniq=    7 SFac= 1.00D+00 NAtFMM=   60 NAOKFM=F Big=F
 Integral buffers will be    131072 words long.
 Raffenetti 2 integral format.
 Two-electron integral symmetry is turned on.
 One-electron integrals computed using PRISM.
 NBasis=    89 RedAO= T EigKep=  1.93D-02  NBF=    89
 NBsUse=    89 1.00D-06 EigRej= -1.00D+00 NBFU=    89
 Initial guess from the checkpoint file:  "H2FPO4-A.chk"
 B after Tr=     0.000000    0.000000    0.000000
         Rot=    0.937839    0.346193    0.021595   -0.011935 Ang=  40.62 deg.
 ExpMin= 6.85D-02 ExpMax= 7.75D+04 ExpMxC= 2.65D+03 IAcc=2 IRadAn=         4 AccDes= 0.00D+00
 Harris functional with IExCor=  402 and IRadAn=       4 diagonalized for initial guess.
 HarFok:  IExCor=  402 AccDes= 0.00D+00 IRadAn=         4 IDoV= 1 UseB2=F ITyADJ=14
 ICtDFT=  3500011 ScaDFX=  1.000000  1.000000  1.000000  1.000000
 FoFCou: FMM=F IPFlag=           0 FMFlag=      100000 FMFlg1=           0
         NFxFlg=           0 DoJE=T BraDBF=F KetDBF=T FulRan=T
         wScrn=  0.000000 ICntrl=     500 IOpCl=  0 I1Cent=   200000004 NGrid=           0
         NMat0=    1 NMatS0=      1 NMatT0=    0 NMatD0=    1 NMtDS0=    0 NMtDT0=    0
 Petite list used in FoFCou.
 Keep R1 ints in memory in canonical form, NReq=8976443.
 Requested convergence on RMS density matrix=1.00D-08 within 128 cycles.
 Requested convergence on MAX density matrix=1.00D-06.
 Requested convergence on             energy=1.00D-06.
 No special actions if energy rises.
 Integral accuracy reduced to 1.0D-05 until final iterations.
 Initial convergence to 1.0D-05 achieved.  Increase integral accuracy.
 SCF Done:  E(RB3LYP) =  -742.690814648     A.U. after   16 cycles
            NFock= 16  Conv=0.91D-08     -V/T= 2.0016
 Calling FoFJK, ICntrl=      2127 FMM=F ISym2X=0 I1Cent= 0 IOpClX= 0 NMat=1 NMatS=1 NMatT=0.
 ***** Axes restored to original set *****
 -------------------------------------------------------------------
 Center     Atomic                   Forces (Hartrees/Bohr)
 Number     Number              X              Y              Z
 -------------------------------------------------------------------
      1       15           0.003422493    0.004335205   -0.000762313
      2        9           0.009332350   -0.007622985   -0.002991658
      3        8          -0.006128034   -0.007051612   -0.008337917
      4        8          -0.000066357   -0.000117005    0.001029637
      5        8          -0.003810513    0.006830414    0.004983812
      6        8           0.000665249    0.001339541    0.004239719
      7        1          -0.003415188    0.002286443    0.001838720
 -------------------------------------------------------------------
 Cartesian Forces:  Max     0.009332350 RMS     0.004728917

 GradGradGradGradGradGradGradGradGradGradGradGradGradGradGradGradGradGrad
 Berny optimization.
 Using GEDIIS/GDIIS optimizer.
 FormGI is forming the generalized inverse of G from B-inverse, IUseBI=4.
 Internal  Forces:  Max     0.011676128 RMS     0.006022607
 Search for a local minimum.
 Step number   3 out of a maximum of   28
 All quantities printed in internal units (Hartrees-Bohrs-Radians)
 Mixed Optimization -- RFO/linear search
 Update second derivatives using D2CorX and points    2    3
 DE= -1.63D-02 DEPred=-1.28D-02 R= 1.27D+00
 TightC=F SS=  1.41D+00  RLast= 6.06D-01 DXNew= 8.4853D-01 1.8183D+00
 Trust test= 1.27D+00 RLast= 6.06D-01 DXMaxT set to 8.49D-01
 The second derivative matrix:
                          R1        R2        R3        R4        R5
           R1           0.47070
           R2          -0.08776   0.38156
           R3           0.01494   0.01419   0.53061
           R4          -0.10237  -0.08455   0.01831   0.80814
           R5          -0.02308  -0.01847   0.00722  -0.02005   0.37056
           R6          -0.00780  -0.00623   0.00241  -0.00704  -0.00054
           A1           0.00586   0.00380  -0.00237   0.00148   0.00099
           A2          -0.00841  -0.00556   0.00511  -0.00367   0.00093
           A3           0.01970   0.01673  -0.00037   0.02156   0.00638
           A4          -0.01893  -0.01520   0.00496  -0.01595  -0.00264
           A5           0.02759   0.02193  -0.00891   0.02204   0.00241
           A6          -0.01949  -0.01566   0.00471  -0.01625  -0.00320
           A7           0.01106   0.01170   0.00479   0.01855   0.00701
           A8          -0.00526  -0.00359   0.00501  -0.00414   0.00313
           D1          -0.00214  -0.00329  -0.00794  -0.01460  -0.00547
           D2          -0.00178  -0.00155   0.00041  -0.00272   0.00008
           D3           0.01726   0.01648   0.00494   0.03146   0.00733
           D4           0.00091   0.00055  -0.00148   0.00026  -0.00106
                          R6        A1        A2        A3        A4
           R6           0.53391
           A1           0.00059   0.25536
           A2           0.00018  -0.00325   0.25374
           A3           0.00233  -0.00046   0.00282   0.24654
           A4          -0.00095  -0.00098   0.00094   0.00414   0.24791
           A5           0.00082   0.00112  -0.00231  -0.00661   0.00257
           A6          -0.00118  -0.00171   0.00102   0.00386  -0.00213
           A7           0.00221  -0.00638   0.00792  -0.00038   0.00590
           A8           0.00123   0.00289   0.00127   0.00420   0.00005
           D1          -0.00197   0.00724  -0.00866   0.00185  -0.00462
           D2           0.00008   0.00157  -0.00070   0.00108  -0.00059
           D3           0.00237  -0.01244   0.01138  -0.00621   0.00819
           D4          -0.00042  -0.00062  -0.00056  -0.00091  -0.00018
                          A5        A6        A7        A8        D1
           A5           0.24750
           A6           0.00287   0.24800
           A7          -0.01006   0.00613   0.25990
           A8          -0.00221  -0.00095   0.00355   0.16671
           D1           0.00720  -0.00488  -0.01216  -0.00368   0.03372
           D2           0.00046  -0.00087  -0.00056   0.00126   0.00024
           D3          -0.01145   0.00936   0.01277   0.00018  -0.00673
           D4           0.00082   0.00008  -0.00113  -0.00194   0.00074
                          D2        D3        D4
           D2           0.03032
           D3          -0.00141   0.04160
           D4          -0.00037   0.00022   0.00582
 ITU=  1  1  0
 Use linear search instead of GDIIS.
     Eigenvalues ---    0.00577   0.02905   0.15145   0.16642   0.18687
     Eigenvalues ---    0.20796   0.25000   0.25153   0.27545   0.31865
     Eigenvalues ---    0.38352   0.51869   0.53495   0.53550   0.84612
 RFO step:  Lambda=-3.22713391D-03 EMin= 5.77317140D-03
 Quartic linear search produced a step of  0.08798.
 Iteration  1 RMS(Cart)=  0.06908289 RMS(Int)=  0.00251666
 Iteration  2 RMS(Cart)=  0.00261201 RMS(Int)=  0.00035344
 Iteration  3 RMS(Cart)=  0.00000367 RMS(Int)=  0.00035343
 Iteration  4 RMS(Cart)=  0.00000000 RMS(Int)=  0.00035343
 Variable       Old X    -DE/DX   Delta X   Delta X   Delta X     New X
                                 (Linear)    (Quad)   (Total)
    R1        3.25583   0.01168   0.01454   0.02943   0.04396   3.29979
    R2        3.39665   0.00937   0.01560   0.03041   0.04601   3.44266
    R3        2.97644  -0.00088  -0.00282  -0.00261  -0.00544   2.97100
    R4        2.97315   0.00682   0.00959   0.01348   0.02307   2.99621
    R5        2.85266   0.00492   0.00378   0.01686   0.02063   2.87329
    R6        1.85471   0.00200   0.00080   0.00463   0.00542   1.86013
    A1        1.51468   0.01001  -0.00595   0.04573   0.03961   1.55429
    A2        1.90463  -0.00322   0.00382  -0.00378  -0.00020   1.90444
    A3        1.86255   0.00665  -0.00820   0.04001   0.03154   1.89409
    A4        1.98514  -0.00163   0.00666  -0.00894  -0.00292   1.98222
    A5        1.85543  -0.00255  -0.00856  -0.02388  -0.03311   1.82232
    A6        2.21163  -0.00373   0.00767  -0.02079  -0.01406   2.19758
    A7        1.88392  -0.00579  -0.00203  -0.02411  -0.02614   1.85778
    A8        1.71683   0.00749  -0.00436   0.04909   0.04473   1.76157
    D1        3.00248   0.00063  -0.00889  -0.06681  -0.07566   2.92681
    D2       -1.36956   0.00141  -0.00647  -0.05138  -0.05829  -1.42785
    D3        1.14400  -0.00912   0.00290  -0.12103  -0.11774   1.02626
    D4       -1.32117  -0.00001   0.04275   0.03506   0.07781  -1.24336
         Item               Value     Threshold  Converged?
 Maximum Force            0.011676     0.000450     NO 
 RMS     Force            0.006023     0.000300     NO 
 Maximum Displacement     0.184937     0.001800     NO 
 RMS     Displacement     0.069128     0.001200     NO 
 Predicted change in Energy=-1.719975D-03
 GradGradGradGradGradGradGradGradGradGradGradGradGradGradGradGradGradGrad

                          Input orientation:                          
 ---------------------------------------------------------------------
 Center     Atomic      Atomic             Coordinates (Angstroms)
 Number     Number       Type             X           Y           Z
 ---------------------------------------------------------------------
      1         15           0       -0.153258    0.118886   -0.140238
      2          9           0        0.874371   -1.292155   -0.185752
      3          8           0       -1.588041   -0.952428   -0.475736
      4          8           0        0.218585    1.065513   -1.339156
      5          8           0       -0.335592    0.560668    1.371542
      6          8           0       -2.825630   -0.107929   -0.216777
      7          1           0       -2.799004   -0.033735    0.764399
 ---------------------------------------------------------------------
                    Distance matrix (angstroms):
                    1          2          3          4          5
     1  P    0.000000
     2  F    1.746176   0.000000
     3  O    1.821778   2.502595   0.000000
     4  O    1.572188   2.705365   2.842794   0.000000
     5  O    1.585527   2.705944   2.696391   2.812448   0.000000
     6  O    2.683072   3.885018   1.520482   3.450209   3.028212
     7  H    2.800292   3.997511   1.961725   3.839158   2.605827
                    6          7
     6  O    0.000000
     7  H    0.984338   0.000000
 Stoichiometry    FHO4P(1-)
 Framework group  C1[X(FHO4P)]
 Deg. of freedom    15
 Full point group                 C1      NOp   1
 Largest Abelian subgroup         C1      NOp   1
 Largest concise Abelian subgroup C1      NOp   1
                         Standard orientation:                         
 ---------------------------------------------------------------------
 Center     Atomic      Atomic             Coordinates (Angstroms)
 Number     Number       Type             X           Y           Z
 ---------------------------------------------------------------------
      1         15           0       -0.438949    0.194831   -0.055104
      2          9           0       -1.424370   -1.240384    0.079928
      3          8           0        1.002470   -0.780836    0.482725
      4          8           0       -0.916705    1.249358    1.008614
      5          8           0       -0.171601    0.479528   -1.591779
      6          8           0        2.228326    0.076484    0.210434
      7          1           0        2.263656    0.044719   -0.772756
 ---------------------------------------------------------------------
 Rotational constants (GHZ):      3.8614466      2.2866839      2.2179789
 Standard basis: 6-311G (5D, 7F)
 There are    89 symmetry adapted cartesian basis functions of A   symmetry.
 There are    89 symmetry adapted basis functions of A   symmetry.
    89 basis functions,   175 primitive gaussians,    89 cartesian basis functions
    29 alpha electrons       29 beta electrons
       nuclear repulsion energy       326.0738320114 Hartrees.



 Warning!  P  atom    1 may be hypervalent but has no d functions.



 NAtoms=    7 NActive=    7 NUniq=    7 SFac= 1.00D+00 NAtFMM=   60 NAOKFM=F Big=F
 Integral buffers will be    131072 words long.
 Raffenetti 2 integral format.
 Two-electron integral symmetry is turned on.
 One-electron integrals computed using PRISM.
 NBasis=    89 RedAO= T EigKep=  1.98D-02  NBF=    89
 NBsUse=    89 1.00D-06 EigRej= -1.00D+00 NBFU=    89
 Initial guess from the checkpoint file:  "H2FPO4-A.chk"
 B after Tr=     0.000000    0.000000    0.000000
         Rot=    0.994239   -0.104016    0.023843    0.010095 Ang= -12.31 deg.
 ExpMin= 6.85D-02 ExpMax= 7.75D+04 ExpMxC= 2.65D+03 IAcc=2 IRadAn=         4 AccDes= 0.00D+00
 Harris functional with IExCor=  402 and IRadAn=       4 diagonalized for initial guess.
 HarFok:  IExCor=  402 AccDes= 0.00D+00 IRadAn=         4 IDoV= 1 UseB2=F ITyADJ=14
 ICtDFT=  3500011 ScaDFX=  1.000000  1.000000  1.000000  1.000000
 FoFCou: FMM=F IPFlag=           0 FMFlag=      100000 FMFlg1=           0
         NFxFlg=           0 DoJE=T BraDBF=F KetDBF=T FulRan=T
         wScrn=  0.000000 ICntrl=     500 IOpCl=  0 I1Cent=   200000004 NGrid=           0
         NMat0=    1 NMatS0=      1 NMatT0=    0 NMatD0=    1 NMtDS0=    0 NMtDT0=    0
 Petite list used in FoFCou.
 Keep R1 ints in memory in canonical form, NReq=8976443.
 Requested convergence on RMS density matrix=1.00D-08 within 128 cycles.
 Requested convergence on MAX density matrix=1.00D-06.
 Requested convergence on             energy=1.00D-06.
 No special actions if energy rises.
 Integral accuracy reduced to 1.0D-05 until final iterations.
 Initial convergence to 1.0D-05 achieved.  Increase integral accuracy.
 SCF Done:  E(RB3LYP) =  -742.692884681     A.U. after   14 cycles
            NFock= 14  Conv=0.63D-08     -V/T= 2.0018
 Calling FoFJK, ICntrl=      2127 FMM=F ISym2X=0 I1Cent= 0 IOpClX= 0 NMat=1 NMatS=1 NMatT=0.
 ***** Axes restored to original set *****
 -------------------------------------------------------------------
 Center     Atomic                   Forces (Hartrees/Bohr)
 Number     Number              X              Y              Z
 -------------------------------------------------------------------
      1       15          -0.002868455    0.000846779    0.007191329
      2        9           0.001503122   -0.000053703   -0.001479442
      3        8          -0.004677378   -0.000845542   -0.003224356
      4        8           0.001929503   -0.000503449   -0.001336344
      5        8          -0.000260437    0.001732364   -0.001974667
      6        8           0.001953303   -0.000862061    0.000779779
      7        1           0.002420341   -0.000314388    0.000043702
 -------------------------------------------------------------------
 Cartesian Forces:  Max     0.007191329 RMS     0.002409865

 GradGradGradGradGradGradGradGradGradGradGradGradGradGradGradGradGradGrad
 Berny optimization.
 Using GEDIIS/GDIIS optimizer.
 FormGI is forming the generalized inverse of G from B-inverse, IUseBI=4.
 Internal  Forces:  Max     0.006898906 RMS     0.002765684
 Search for a local minimum.
 Step number   4 out of a maximum of   28
 All quantities printed in internal units (Hartrees-Bohrs-Radians)
 Mixed Optimization -- RFO/linear search
 Update second derivatives using D2CorX and points    3    4
 DE= -2.07D-03 DEPred=-1.72D-03 R= 1.20D+00
 TightC=F SS=  1.41D+00  RLast= 2.02D-01 DXNew= 1.4270D+00 6.0490D-01
 Trust test= 1.20D+00 RLast= 2.02D-01 DXMaxT set to 8.49D-01
 The second derivative matrix:
                          R1        R2        R3        R4        R5
           R1           0.47381
           R2          -0.08986   0.37664
           R3           0.00963   0.01080   0.53199
           R4          -0.09270  -0.08028   0.01370   0.81982
           R5          -0.00311  -0.00627   0.00143  -0.00174   0.39459
           R6          -0.00684  -0.00629   0.00142  -0.00507   0.00321
           A1          -0.00189  -0.00589  -0.00556   0.00280   0.01171
           A2          -0.00109   0.00014   0.00434   0.00093   0.00473
           A3          -0.00002  -0.00104  -0.00094   0.01322   0.00583
           A4          -0.01515  -0.01131   0.00560  -0.01518  -0.00452
           A5           0.02623   0.02264  -0.00681   0.01816  -0.00549
           A6          -0.00686  -0.00447   0.00488  -0.01061  -0.00212
           A7           0.03572   0.03105   0.00237   0.03384   0.01925
           A8           0.01702   0.00935  -0.00217   0.01741   0.03260
           D1           0.00773   0.00437  -0.00902  -0.00832  -0.00018
           D2           0.02272   0.01622  -0.00360   0.01494   0.01815
           D3           0.00142   0.00637   0.00906   0.01768  -0.00996
           D4          -0.00825  -0.00598   0.00015  -0.00655  -0.00830
                          R6        A1        A2        A3        A4
           R6           0.53415
           A1          -0.00041   0.23954
           A2           0.00145   0.00359   0.25306
           A3          -0.00085  -0.02453   0.00868   0.21901
           A4          -0.00038   0.00479  -0.00101   0.01182   0.24594
           A5           0.00042   0.00403  -0.00517   0.00100   0.00112
           A6           0.00088   0.01327  -0.00242   0.02060  -0.00686
           A7           0.00644   0.01698   0.00540   0.02003  -0.00079
           A8           0.00548   0.01330   0.00662   0.00036  -0.00137
           D1          -0.00026   0.01637  -0.00951   0.00956  -0.00720
           D2           0.00442   0.02135  -0.00076   0.01421  -0.00576
           D3          -0.00057  -0.02196   0.00910  -0.00791   0.01012
           D4          -0.00205  -0.00774  -0.00074  -0.00525   0.00163
                          A5        A6        A7        A8        D1
           A5           0.24809
           A6          -0.00201   0.23784
           A7          -0.01967  -0.00592   0.25060
           A8          -0.01103   0.00230   0.02095   0.20250
           D1           0.00335  -0.00941  -0.01535   0.00370   0.03265
           D2          -0.00913  -0.00831  -0.00153   0.02498   0.00037
           D3          -0.00520   0.00986   0.00552  -0.02128  -0.00994
           D4           0.00441   0.00250  -0.00144  -0.01133   0.00042
                          D2        D3        D4
           D2           0.03725
           D3          -0.01339   0.05389
           D4          -0.00360   0.00509   0.00727
 ITU=  1  1  1  0
 Use linear search instead of GDIIS.
     Eigenvalues ---    0.00490   0.02214   0.15348   0.18411   0.18761
     Eigenvalues ---    0.20225   0.24820   0.25131   0.26854   0.34305
     Eigenvalues ---    0.40857   0.52441   0.53458   0.53545   0.85197
 RFO step:  Lambda=-2.10870679D-03 EMin= 4.89745824D-03
 Quartic linear search produced a step of  0.34212.
 Iteration  1 RMS(Cart)=  0.11384016 RMS(Int)=  0.04510951
 Iteration  2 RMS(Cart)=  0.06666019 RMS(Int)=  0.00696130
 Iteration  3 RMS(Cart)=  0.00602464 RMS(Int)=  0.00020893
 Iteration  4 RMS(Cart)=  0.00003318 RMS(Int)=  0.00020790
 Iteration  5 RMS(Cart)=  0.00000000 RMS(Int)=  0.00020790
 Variable       Old X    -DE/DX   Delta X   Delta X   Delta X     New X
                                 (Linear)    (Quad)   (Total)
    R1        3.29979   0.00097   0.01504   0.01699   0.03203   3.33183
    R2        3.44266   0.00187   0.01574   0.02150   0.03724   3.47990
    R3        2.97100   0.00117  -0.00186   0.00260   0.00074   2.97174
    R4        2.99621  -0.00137   0.00789   0.00707   0.01496   3.01117
    R5        2.87329  -0.00407   0.00706  -0.00564   0.00142   2.87471
    R6        1.86013   0.00008   0.00185   0.00232   0.00418   1.86431
    A1        1.55429   0.00200   0.01355   0.01735   0.03088   1.58517
    A2        1.90444  -0.00365  -0.00007  -0.01891  -0.01911   1.88533
    A3        1.89409   0.00224   0.01079   0.02044   0.03138   1.92546
    A4        1.98222   0.00035  -0.00100   0.00357   0.00226   1.98448
    A5        1.82232   0.00165  -0.01133  -0.00601  -0.01763   1.80468
    A6        2.19758  -0.00132  -0.00481  -0.00721  -0.01248   2.18509
    A7        1.85778  -0.00690  -0.00894  -0.03818  -0.04713   1.81065
    A8        1.76157  -0.00408   0.01530  -0.01573  -0.00043   1.76114
    D1        2.92681  -0.00003  -0.02589  -0.09637  -0.12252   2.80430
    D2       -1.42785  -0.00308  -0.01994  -0.10868  -0.12884  -1.55669
    D3        1.02626  -0.00300  -0.04028  -0.12172  -0.16152   0.86474
    D4       -1.24336   0.00194   0.02662   0.35656   0.38318  -0.86018
         Item               Value     Threshold  Converged?
 Maximum Force            0.006899     0.000450     NO 
 RMS     Force            0.002766     0.000300     NO 
 Maximum Displacement     0.425013     0.001800     NO 
 RMS     Displacement     0.153362     0.001200     NO 
 Predicted change in Energy=-1.234674D-03
 GradGradGradGradGradGradGradGradGradGradGradGradGradGradGradGradGradGrad

                          Input orientation:                          
 ---------------------------------------------------------------------
 Center     Atomic      Atomic             Coordinates (Angstroms)
 Number     Number       Type             X           Y           Z
 ---------------------------------------------------------------------
      1         15           0       -0.196670    0.097940   -0.145515
      2          9           0        0.896688   -1.284947   -0.174012
      3          8           0       -1.622953   -0.987256   -0.568752
      4          8           0        0.221931    1.073097   -1.306052
      5          8           0       -0.497830    0.534389    1.357106
      6          8           0       -2.835638   -0.170430   -0.148830
      7          1           0       -2.574097    0.096026    0.764337
 ---------------------------------------------------------------------
                    Distance matrix (angstroms):
                    1          2          3          4          5
     1  P    0.000000
     2  F    1.763128   0.000000
     3  O    1.841484   2.567689   0.000000
     4  O    1.572579   2.701330   2.862213   0.000000
     5  O    1.593442   2.756626   2.700043   2.810814   0.000000
     6  O    2.652581   3.895259   1.521232   3.497750   2.868791
     7  H    2.545583   3.851485   1.963493   3.613717   2.203275
                    6          7
     6  O    0.000000
     7  H    0.986549   0.000000
 Stoichiometry    FHO4P(1-)
 Framework group  C1[X(FHO4P)]
 Deg. of freedom    15
 Full point group                 C1      NOp   1
 Largest Abelian subgroup         C1      NOp   1
 Largest concise Abelian subgroup C1      NOp   1
                         Standard orientation:                         
 ---------------------------------------------------------------------
 Center     Atomic      Atomic             Coordinates (Angstroms)
 Number     Number       Type             X           Y           Z
 ---------------------------------------------------------------------
      1         15           0       -0.427672    0.199913   -0.019732
      2          9           0       -1.471988   -1.198771   -0.268141
      3          8           0        0.983714   -0.898463    0.419155
      4          8           0       -0.993291    1.019322    1.197499
      5          8           0        0.009014    0.820283   -1.420983
      6          8           0        2.204910   -0.011986    0.226844
      7          1           0        2.028204    0.356991   -0.670880
 ---------------------------------------------------------------------
 Rotational constants (GHZ):      3.8994272      2.2915975      2.2080628
 Standard basis: 6-311G (5D, 7F)
 There are    89 symmetry adapted cartesian basis functions of A   symmetry.
 There are    89 symmetry adapted basis functions of A   symmetry.
    89 basis functions,   175 primitive gaussians,    89 cartesian basis functions
    29 alpha electrons       29 beta electrons
       nuclear repulsion energy       325.7900598737 Hartrees.



 Warning!  P  atom    1 may be hypervalent but has no d functions.



 NAtoms=    7 NActive=    7 NUniq=    7 SFac= 1.00D+00 NAtFMM=   60 NAOKFM=F Big=F
 Integral buffers will be    131072 words long.
 Raffenetti 2 integral format.
 Two-electron integral symmetry is turned on.
 One-electron integrals computed using PRISM.
 NBasis=    89 RedAO= T EigKep=  1.96D-02  NBF=    89
 NBsUse=    89 1.00D-06 EigRej= -1.00D+00 NBFU=    89
 Initial guess from the checkpoint file:  "H2FPO4-A.chk"
 B after Tr=     0.000000    0.000000    0.000000
         Rot=    0.993732   -0.108726    0.024810    0.007694 Ang= -12.84 deg.
 ExpMin= 6.85D-02 ExpMax= 7.75D+04 ExpMxC= 2.65D+03 IAcc=2 IRadAn=         4 AccDes= 0.00D+00
 Harris functional with IExCor=  402 and IRadAn=       4 diagonalized for initial guess.
 HarFok:  IExCor=  402 AccDes= 0.00D+00 IRadAn=         4 IDoV= 1 UseB2=F ITyADJ=14
 ICtDFT=  3500011 ScaDFX=  1.000000  1.000000  1.000000  1.000000
 FoFCou: FMM=F IPFlag=           0 FMFlag=      100000 FMFlg1=           0
         NFxFlg=           0 DoJE=T BraDBF=F KetDBF=T FulRan=T
         wScrn=  0.000000 ICntrl=     500 IOpCl=  0 I1Cent=   200000004 NGrid=           0
         NMat0=    1 NMatS0=      1 NMatT0=    0 NMatD0=    1 NMtDS0=    0 NMtDT0=    0
 Petite list used in FoFCou.
 Keep R1 ints in memory in canonical form, NReq=8976443.
 Requested convergence on RMS density matrix=1.00D-08 within 128 cycles.
 Requested convergence on MAX density matrix=1.00D-06.
 Requested convergence on             energy=1.00D-06.
 No special actions if energy rises.
 Integral accuracy reduced to 1.0D-05 until final iterations.
 Initial convergence to 1.0D-05 achieved.  Increase integral accuracy.
 SCF Done:  E(RB3LYP) =  -742.694172306     A.U. after   16 cycles
            NFock= 16  Conv=0.33D-08     -V/T= 2.0018
 Calling FoFJK, ICntrl=      2127 FMM=F ISym2X=0 I1Cent= 0 IOpClX= 0 NMat=1 NMatS=1 NMatT=0.
 ***** Axes restored to original set *****
 -------------------------------------------------------------------
 Center     Atomic                   Forces (Hartrees/Bohr)
 Number     Number              X              Y              Z
 -------------------------------------------------------------------
      1       15           0.000628537   -0.006171968    0.000746181
      2        9          -0.003829504    0.005245927    0.001159577
      3        8           0.002917510    0.004112295    0.000815512
      4        8           0.001853158   -0.000322203   -0.000632348
      5        8          -0.000925916   -0.001212722   -0.004063676
      6        8          -0.002359960   -0.000549365   -0.002039969
      7        1           0.001716175   -0.001101965    0.004014723
 -------------------------------------------------------------------
 Cartesian Forces:  Max     0.006171968 RMS     0.002775334

 GradGradGradGradGradGradGradGradGradGradGradGradGradGradGradGradGradGrad
 Berny optimization.
 Using GEDIIS/GDIIS optimizer.
 FormGI is forming the generalized inverse of G from B-inverse, IUseBI=4.
 Internal  Forces:  Max     0.006507762 RMS     0.003073086
 Search for a local minimum.
 Step number   5 out of a maximum of   28
 All quantities printed in internal units (Hartrees-Bohrs-Radians)
 Mixed Optimization -- RFO/linear search
 Update second derivatives using D2CorX and points    4    5
 DE= -1.29D-03 DEPred=-1.23D-03 R= 1.04D+00
 TightC=F SS=  1.41D+00  RLast= 4.61D-01 DXNew= 1.4270D+00 1.3819D+00
 Trust test= 1.04D+00 RLast= 4.61D-01 DXMaxT set to 1.38D+00
 The second derivative matrix:
                          R1        R2        R3        R4        R5
           R1           0.49733
           R2          -0.07243   0.38889
           R3           0.01035   0.01068   0.53138
           R4          -0.08358  -0.07253   0.01493   0.82190
           R5          -0.01470  -0.01283   0.00304  -0.00923   0.39414
           R6          -0.01909  -0.01573   0.00071  -0.00930   0.01032
           A1          -0.00013  -0.00519  -0.00610   0.00437   0.01268
           A2          -0.00808  -0.00227   0.00680  -0.00583  -0.00017
           A3           0.00729   0.00388  -0.00120   0.01679   0.00375
           A4          -0.02388  -0.01839   0.00475  -0.01767   0.00163
           A5           0.04319   0.03444  -0.00704   0.02587  -0.01149
           A6          -0.01337  -0.00915   0.00481  -0.01334   0.00066
           A7           0.01267   0.01735   0.00493   0.01993   0.02037
           A8           0.01561   0.01057  -0.00003   0.01354   0.02646
           D1           0.01938   0.01344  -0.00824  -0.00445  -0.00724
           D2           0.02372   0.01759  -0.00297   0.01442   0.01578
           D3           0.00474   0.01160   0.01183   0.01491  -0.01995
           D4           0.00692   0.00486   0.00023  -0.00007  -0.01456
                          R6        A1        A2        A3        A4
           R6           0.54034
           A1          -0.00165   0.23913
           A2           0.00653   0.00555   0.24383
           A3          -0.00492  -0.02443   0.00856   0.22091
           A4           0.00385   0.00358   0.00408   0.00865   0.24863
           A5          -0.00882   0.00460  -0.00702   0.00569  -0.00588
           A6           0.00434   0.01291  -0.00106   0.01868  -0.00432
           A7           0.02022   0.01830  -0.00163   0.01539   0.01082
           A8           0.00740   0.01523  -0.00222   0.00161   0.00119
           D1          -0.00610   0.01764  -0.01476   0.01351  -0.01113
           D2           0.00422   0.02198  -0.00360   0.01499  -0.00557
           D3          -0.00085  -0.01922  -0.00320  -0.00482   0.01138
           D4          -0.01017  -0.00696  -0.00360  -0.00083  -0.00437
                          A5        A6        A7        A8        D1
           A5           0.25942
           A6          -0.00654   0.23961
           A7          -0.03237  -0.00024   0.25617
           A8          -0.00944   0.00222   0.01097   0.19500
           D1           0.01225  -0.01272  -0.02896   0.00154   0.03814
           D2          -0.00769  -0.00872  -0.00563   0.02284   0.00046
           D3           0.00039   0.00837  -0.01161  -0.03074  -0.01008
           D4           0.01488  -0.00162  -0.01430  -0.01090   0.00820
                          D2        D3        D4
           D2           0.03672
           D3          -0.01579   0.04304
           D4          -0.00258   0.00888   0.01682
 ITU=  1  1  1  1  0
 Use linear search instead of GDIIS.
     Eigenvalues ---    0.00600   0.01804   0.15181   0.18288   0.18876
     Eigenvalues ---    0.20664   0.24519   0.25203   0.28818   0.36457
     Eigenvalues ---    0.41235   0.52460   0.53472   0.55520   0.85012
 RFO step:  Lambda=-2.25631821D-03 EMin= 5.99699792D-03
 Quartic linear search produced a step of -0.02705.
 Iteration  1 RMS(Cart)=  0.14685760 RMS(Int)=  0.01355054
 Iteration  2 RMS(Cart)=  0.01650051 RMS(Int)=  0.00014916
 Iteration  3 RMS(Cart)=  0.00018388 RMS(Int)=  0.00008121
 Iteration  4 RMS(Cart)=  0.00000002 RMS(Int)=  0.00008121
 Variable       Old X    -DE/DX   Delta X   Delta X   Delta X     New X
                                 (Linear)    (Quad)   (Total)
    R1        3.33183  -0.00651  -0.00087   0.01665   0.01579   3.34761
    R2        3.47990  -0.00385  -0.00101   0.02434   0.02333   3.50323
    R3        2.97174   0.00076  -0.00002   0.00208   0.00206   2.97380
    R4        3.01117  -0.00399  -0.00040   0.00764   0.00723   3.01840
    R5        2.87471   0.00017  -0.00004  -0.00361  -0.00365   2.87107
    R6        1.86431   0.00387  -0.00011   0.00952   0.00941   1.87372
    A1        1.58517   0.00127  -0.00084   0.03005   0.02920   1.61437
    A2        1.88533  -0.00067   0.00052  -0.02444  -0.02403   1.86130
    A3        1.92546  -0.00022  -0.00085   0.02642   0.02572   1.95118
    A4        1.98448   0.00296  -0.00006   0.01325   0.01316   1.99764
    A5        1.80468  -0.00395   0.00048  -0.02430  -0.02382   1.78087
    A6        2.18509   0.00079   0.00034  -0.00768  -0.00736   2.17773
    A7        1.81065   0.00136   0.00127  -0.04388  -0.04260   1.76805
    A8        1.76114  -0.00301   0.00001  -0.03087  -0.03086   1.73028
    D1        2.80430  -0.00361   0.00331  -0.20332  -0.20024   2.60405
    D2       -1.55669  -0.00323   0.00348  -0.21382  -0.21026  -1.76694
    D3        0.86474  -0.00329   0.00437  -0.23586  -0.23133   0.63341
    D4       -0.86018  -0.00299  -0.01036  -0.00946  -0.01982  -0.88000
         Item               Value     Threshold  Converged?
 Maximum Force            0.006508     0.000450     NO 
 RMS     Force            0.003073     0.000300     NO 
 Maximum Displacement     0.271900     0.001800     NO 
 RMS     Displacement     0.156046     0.001200     NO 
 Predicted change in Energy=-1.281761D-03
 GradGradGradGradGradGradGradGradGradGradGradGradGradGradGradGradGradGrad

                          Input orientation:                          
 ---------------------------------------------------------------------
 Center     Atomic      Atomic             Coordinates (Angstroms)
 Number     Number       Type             X           Y           Z
 ---------------------------------------------------------------------
      1         15           0       -0.215930    0.112990   -0.182827
      2          9           0        0.861231   -1.291786   -0.115946
      3          8           0       -1.669906   -0.923754   -0.680623
      4          8           0        0.335777    1.050304   -1.320147
      5          8           0       -0.641121    0.604261    1.276328
      6          8           0       -2.817266   -0.145338   -0.059403
      7          1           0       -2.461356   -0.047857    0.860899
 ---------------------------------------------------------------------
                    Distance matrix (angstroms):
                    1          2          3          4          5
     1  P    0.000000
     2  F    1.771481   0.000000
     3  O    1.853830   2.619344   0.000000
     4  O    1.573670   2.685440   2.885943   0.000000
     5  O    1.597269   2.791145   2.687543   2.809798   0.000000
     6  O    2.617043   3.853425   1.519303   3.600100   2.661144
     7  H    2.481365   3.679833   1.941617   3.713067   1.977649
                    6          7
     6  O    0.000000
     7  H    0.991529   0.000000
 Stoichiometry    FHO4P(1-)
 Framework group  C1[X(FHO4P)]
 Deg. of freedom    15
 Full point group                 C1      NOp   1
 Largest Abelian subgroup         C1      NOp   1
 Largest concise Abelian subgroup C1      NOp   1
                         Standard orientation:                         
 ---------------------------------------------------------------------
 Center     Atomic      Atomic             Coordinates (Angstroms)
 Number     Number       Type             X           Y           Z
 ---------------------------------------------------------------------
      1         15           0       -0.425789    0.195691   -0.016457
      2          9           0       -1.431569   -1.198230   -0.444869
      3          8           0        0.968936   -0.883640    0.554918
      4          8           0       -1.177032    0.955519    1.138849
      5          8           0        0.201367    0.894031   -1.308844
      6          8           0        2.170927   -0.011259    0.234842
      7          1           0        1.957371    0.211489   -0.707446
 ---------------------------------------------------------------------
 Rotational constants (GHZ):      3.9936809      2.3003970      2.1977687
 Standard basis: 6-311G (5D, 7F)
 There are    89 symmetry adapted cartesian basis functions of A   symmetry.
 There are    89 symmetry adapted basis functions of A   symmetry.
    89 basis functions,   175 primitive gaussians,    89 cartesian basis functions
    29 alpha electrons       29 beta electrons
       nuclear repulsion energy       326.2655955956 Hartrees.



 Warning!  P  atom    1 may be hypervalent but has no d functions.



 NAtoms=    7 NActive=    7 NUniq=    7 SFac= 1.00D+00 NAtFMM=   60 NAOKFM=F Big=F
 Integral buffers will be    131072 words long.
 Raffenetti 2 integral format.
 Two-electron integral symmetry is turned on.
 One-electron integrals computed using PRISM.
 NBasis=    89 RedAO= T EigKep=  2.01D-02  NBF=    89
 NBsUse=    89 1.00D-06 EigRej= -1.00D+00 NBFU=    89
 Initial guess from the checkpoint file:  "H2FPO4-A.chk"
 B after Tr=     0.000000    0.000000    0.000000
         Rot=    0.999140   -0.019640    0.036279   -0.004135 Ang=  -4.75 deg.
 ExpMin= 6.85D-02 ExpMax= 7.75D+04 ExpMxC= 2.65D+03 IAcc=2 IRadAn=         4 AccDes= 0.00D+00
 Harris functional with IExCor=  402 and IRadAn=       4 diagonalized for initial guess.
 HarFok:  IExCor=  402 AccDes= 0.00D+00 IRadAn=         4 IDoV= 1 UseB2=F ITyADJ=14
 ICtDFT=  3500011 ScaDFX=  1.000000  1.000000  1.000000  1.000000
 FoFCou: FMM=F IPFlag=           0 FMFlag=      100000 FMFlg1=           0
         NFxFlg=           0 DoJE=T BraDBF=F KetDBF=T FulRan=T
         wScrn=  0.000000 ICntrl=     500 IOpCl=  0 I1Cent=   200000004 NGrid=           0
         NMat0=    1 NMatS0=      1 NMatT0=    0 NMatD0=    1 NMtDS0=    0 NMtDT0=    0
 Petite list used in FoFCou.
 Keep R1 ints in memory in canonical form, NReq=8976443.
 Requested convergence on RMS density matrix=1.00D-08 within 128 cycles.
 Requested convergence on MAX density matrix=1.00D-06.
 Requested convergence on             energy=1.00D-06.
 No special actions if energy rises.
 Integral accuracy reduced to 1.0D-05 until final iterations.
 Initial convergence to 1.0D-05 achieved.  Increase integral accuracy.
 SCF Done:  E(RB3LYP) =  -742.694261522     A.U. after   14 cycles
            NFock= 14  Conv=0.76D-08     -V/T= 2.0018
 Calling FoFJK, ICntrl=      2127 FMM=F ISym2X=0 I1Cent= 0 IOpClX= 0 NMat=1 NMatS=1 NMatT=0.
 ***** Axes restored to original set *****
 -------------------------------------------------------------------
 Center     Atomic                   Forces (Hartrees/Bohr)
 Number     Number              X              Y              Z
 -------------------------------------------------------------------
      1       15           0.001215589   -0.004963535   -0.002782460
      2        9          -0.006110172    0.006633582    0.002488662
      3        8           0.007655191    0.006266390    0.001523617
      4        8           0.000595247   -0.000938132   -0.000173015
      5        8           0.004493794   -0.005431536   -0.001695003
      6        8          -0.007052917   -0.005481184   -0.000836085
      7        1          -0.000796731    0.003914416    0.001474284
 -------------------------------------------------------------------
 Cartesian Forces:  Max     0.007655191 RMS     0.004220300

 GradGradGradGradGradGradGradGradGradGradGradGradGradGradGradGradGradGrad
 Berny optimization.
 Using GEDIIS/GDIIS optimizer.
 FormGI is forming the generalized inverse of G from B-inverse, IUseBI=4.
 Internal  Forces:  Max     0.020021133 RMS     0.006408729
 Search for a local minimum.
 Step number   6 out of a maximum of   28
 All quantities printed in internal units (Hartrees-Bohrs-Radians)
 Mixed Optimization -- RFO/linear search
 Update second derivatives using D2CorX and points    5    6
 DE= -8.92D-05 DEPred=-1.28D-03 R= 6.96D-02
 Trust test= 6.96D-02 RLast= 3.81D-01 DXMaxT set to 6.91D-01
 The second derivative matrix:
                          R1        R2        R3        R4        R5
           R1           0.47634
           R2          -0.08602   0.38115
           R3           0.01339   0.01205   0.53128
           R4          -0.09690  -0.08067   0.01658   0.81367
           R5          -0.01658  -0.01162   0.00194  -0.00930   0.39960
           R6          -0.00489  -0.00834  -0.00033  -0.00112   0.00743
           A1           0.00500  -0.00351  -0.00591   0.00687   0.00935
           A2          -0.01112  -0.00356   0.00685  -0.00745   0.00115
           A3           0.00919   0.00146   0.00059   0.01631  -0.00452
           A4          -0.01263  -0.01227   0.00378  -0.01107  -0.00005
           A5           0.02704   0.02821  -0.00710   0.01758  -0.00316
           A6          -0.01034  -0.00650   0.00398  -0.01110   0.00256
           A7           0.00865   0.02333   0.00066   0.02134   0.03985
           A8           0.00150   0.00604  -0.00060   0.00671   0.03584
           D1           0.00832   0.00779  -0.00749  -0.01077  -0.00474
           D2           0.01468   0.01299  -0.00237   0.00926   0.01785
           D3          -0.01143   0.00650   0.01113   0.00713  -0.00899
           D4          -0.00665   0.00029  -0.00019  -0.00674  -0.00605
                          R6        A1        A2        A3        A4
           R6           0.53383
           A1          -0.00231   0.24042
           A2           0.00742   0.00523   0.24383
           A3           0.00005  -0.01922   0.00645   0.23338
[...]
    81. RY*(   9) O   4                  0.00001     3.28158   
    82. RY*(  10) O   4                  0.00000     4.87598   
    83. RY*(  11) O   4                  0.00000     3.11055   
    84. RY*(  12) O   4                  0.00000    49.70348   
    85. RY*(  13) O   4                  0.00000     3.11996   
    86. RY*(   1) O   5                  0.00089     1.62538   
    87. RY*(   2) O   5                  0.00042     1.26056   
    88. RY*(   3) O   5                  0.00031     1.26362   
    89. RY*(   4) O   5                  0.00008     1.76842   
    90. RY*(   5) O   5                  0.00005     3.14272   
    91. RY*(   6) O   5                  0.00003     3.15340   
    92. RY*(   7) O   5                  0.00003     3.21867   
    93. RY*(   8) O   5                  0.00002     4.97436   
    94. RY*(   9) O   5                  0.00002     4.53438   
    95. RY*(  10) O   5                  0.00000    49.67336   
    96. RY*(  11) O   5                  0.00000     4.71574   
    97. RY*(  12) O   5                  0.00000     3.45762   
    98. RY*(  13) O   5                  0.00000     3.10461   
    99. RY*(   1) O   6                  0.00101     1.23702   
   100. RY*(   2) O   6                  0.00059     1.59327   
   101. RY*(   3) O   6                  0.00043     1.71229   
   102. RY*(   4) O   6                  0.00018     2.54899   
   103. RY*(   5) O   6                  0.00006     2.63519   
   104. RY*(   6) O   6                  0.00004     2.46654   
   105. RY*(   7) O   6                  0.00001     4.82504   
   106. RY*(   8) O   6                  0.00001     4.64823   
   107. RY*(   9) O   6                  0.00001     3.00471   
   108. RY*(  10) O   6                  0.00000     4.64290   
   109. RY*(  11) O   6                  0.00000     3.35701   
   110. RY*(  12) O   6                  0.00000    49.71384   
   111. RY*(  13) O   6                  0.00000     3.13851   
   112. RY*(   1) H   7                  0.00628     0.79402   
   113. RY*(   2) H   7                  0.00175     1.70730   
   114. RY*(   3) H   7                  0.00088     1.99993   
   115. RY*(   4) H   7                  0.00069     2.06093   
   116. RY*(   5) H   7                  0.00003     2.51942   
   117. BD*(   1) P   1 - F   2          0.28830     0.23092  31(g),118(g),30(g),119(g)
                                                    120(g),37(g),36(g),42(g)
   118. BD*(   1) P   1 - O   3          0.24745     0.25435  31(g),117(g),121(g),119(g)
                                                    37(g),30(g),38(g),120(g)
                                                    32(g)
   119. BD*(   1) P   1 - O   4          0.10427     0.43600  120(g),32(g),30(g),35(g)
                                                    117(g),118(g),41(g),40(g)
   120. BD*(   1) P   1 - O   5          0.12473     0.41738  119(g),30(g),32(g),35(g)
                                                    31(g),36(g),117(g)
   121. BD*(   1) O   3 - O   6          0.02583     0.17500   
   122. BD*(   1) O   6 - H   7          0.03992     0.52361   
       -------------------------------
              Total Lewis   56.94897  ( 98.1879%)
        Valence non-Lewis    0.83050  (  1.4319%)
        Rydberg non-Lewis    0.22053  (  0.3802%)
       -------------------------------
            Total unit  1   58.00000  (100.0000%)
           Charge unit  1   -1.00000
 1\1\GINC-INDIO\SP\RB3LYP\6-311G(d,p)\F1H1O4P1(1-)\SARARIOP\23-Jun-2017
 \0\\# B3LYP/6-311G** geom=check guess=read pop=nboread\\Title Card Req
 uired\\-1,1\P,0,-0.2241592016,0.1811293064,-0.2371809794\F,0,0.6047121
 14,-1.3298904016,0.048328385\O,0,-1.76412016,-0.441171746,-0.948227943
 1\O,0,0.5640091622,0.9554426163,-1.3548185108\O,0,-0.6918143643,0.7328
 168934,1.1838058948\O,0,-2.7438131377,-0.6755115826,0.1969200122\H,0,-
 2.3533842927,-0.0639960859,0.8894551413\\Version=AM64L-G09RevD.01\Stat
 e=1-A\HF=-742.8924722\RMSD=8.977e-09\Dipole=-0.3017488,-0.2731358,0.33
 99706\Quadrupole=-1.3987186,0.8797196,0.518999,-2.6011751,0.6047824,0.
 4789403\PG=C01 [X(F1H1O4P1)]\\@


 YOU WILL NEVER "FIND" TIME FOR ANYTHING.
 IF YOU WANT TIME, YOU MUST MAKE IT.

                        -- CHARLES BIXTON
 Job cpu time:       0 days  0 hours  1 minutes 17.9 seconds.
 File lengths (MBytes):  RWF=      7 Int=      0 D2E=      0 Chk=      3 Scr=      1
 Normal termination of Gaussian 09 at Fri Jun 23 03:57:50 2017.
 Initial command:
 /usr/local/gaussian/gaussian09.d1/g09/l1.exe "/scratch/sarariop/H2FPO4-A.com/Gau-8468.inp" -scrdir="/scratch/sarariop/H2FPO4-A.com/"
 Default is to use a total of  10 processors:
                               10 via shared-memory
                                1 via Linda
 Entering Link 1 = /usr/local/gaussian/gaussian09.d1/g09/l1.exe PID=     10708.
  
 Copyright (c) 1988,1990,1992,1993,1995,1998,2003,2009,2013,
            Gaussian, Inc.  All Rights Reserved.
  
 This is part of the Gaussian(R) 09 program.  It is based on
 the Gaussian(R) 03 system (copyright 2003, Gaussian, Inc.),
 the Gaussian(R) 98 system (copyright 1998, Gaussian, Inc.),
 the Gaussian(R) 94 system (copyright 1995, Gaussian, Inc.),
 the Gaussian 92(TM) system (copyright 1992, Gaussian, Inc.),
 the Gaussian 90(TM) system (copyright 1990, Gaussian, Inc.),
 the Gaussian 88(TM) system (copyright 1988, Gaussian, Inc.),
 the Gaussian 86(TM) system (copyright 1986, Carnegie Mellon
 University), and the Gaussian 82(TM) system (copyright 1983,
 Carnegie Mellon University). Gaussian is a federally registered
 trademark of Gaussian, Inc.
  
 This software contains proprietary and confidential information,
 including trade secrets, belonging to Gaussian, Inc.
  
 This software is provided under written license and may be
 used, copied, transmitted, or stored only in accord with that
 written license.
  
 The following legend is applicable only to US Government
 contracts under FAR:
  
                    RESTRICTED RIGHTS LEGEND
  
 Use, reproduction and disclosure by the US Government is
 subject to restrictions as set forth in subparagraphs (a)
 and (c) of the Commercial Computer Software - Restricted
 Rights clause in FAR 52.227-19.
  
 Gaussian, Inc.
 340 Quinnipiac St., Bldg. 40, Wallingford CT 06492
  
  
 ---------------------------------------------------------------
 Warning -- This program may not be used in any manner that
 competes with the business of Gaussian, Inc. or will provide
 assistance to any competitor of Gaussian, Inc.  The licensee
 of this program is prohibited from giving any competitor of
 Gaussian, Inc. access to this program.  By using this program,
 the user acknowledges that Gaussian, Inc. is engaged in the
 business of creating and licensing software in the field of
 computational chemistry and represents and warrants to the
 licensee that it is not a competitor of Gaussian, Inc. and that
 it will not use this program in any manner prohibited above.
 ---------------------------------------------------------------
  

 Cite this work as:
 Gaussian 09, Revision D.01,
 M. J. Frisch, G. W. Trucks, H. B. Schlegel, G. E. Scuseria, 
 M. A. Robb, J. R. Cheeseman, G. Scalmani, V. Barone, B. Mennucci, 
 G. A. Petersson, H. Nakatsuji, M. Caricato, X. Li, H. P. Hratchian, 
 A. F. Izmaylov, J. Bloino, G. Zheng, J. L. Sonnenberg, M. Hada, 
 M. Ehara, K. Toyota, R. Fukuda, J. Hasegawa, M. Ishida, T. Nakajima, 
 Y. Honda, O. Kitao, H. Nakai, T. Vreven, J. A. Montgomery, Jr., 
 J. E. Peralta, F. Ogliaro, M. Bearpark, J. J. Heyd, E. Brothers, 
 K. N. Kudin, V. N. Staroverov, T. Keith, R. Kobayashi, J. Normand, 
 K. Raghavachari, A. Rendell, J. C. Burant, S. S. Iyengar, J. Tomasi, 
 M. Cossi, N. Rega, J. M. Millam, M. Klene, J. E. Knox, J. B. Cross, 
 V. Bakken, C. Adamo, J. Jaramillo, R. Gomperts, R. E. Stratmann, 
 O. Yazyev, A. J. Austin, R. Cammi, C. Pomelli, J. W. Ochterski, 
 R. L. Martin, K. Morokuma, V. G. Zakrzewski, G. A. Voth, 
 P. Salvador, J. J. Dannenberg, S. Dapprich, A. D. Daniels, 
 O. Farkas, J. B. Foresman, J. V. Ortiz, J. Cioslowski, 
 and D. J. Fox, Gaussian, Inc., Wallingford CT, 2013.
 
 ******************************************
 Gaussian 09:  AM64L-G09RevD.01 24-Apr-2013
                23-Jun-2017 
 ******************************************
 %chk=H2FPO4-A.chk
 Default route:  MaxDisk=70GB
 -------------------------------------------------
 # B3LYP/6-311G** geom=check guess=read output=wfx
 -------------------------------------------------
 1/29=2,38=1/1;
 2/12=2,40=1/2;
 3/5=4,6=6,7=101,11=2,14=-4,16=1,25=1,30=1,74=-5,116=-2/1,2,3;
 4/5=1/1;
 5/5=2,38=6/2;
 6/7=2,8=2,9=2,10=2,28=1/1;
 99/5=1,6=200,9=1/99;
 -------------------
 Title Card Required
 -------------------
 Structure from the checkpoint file:  "H2FPO4-A.chk"
 Charge = -1 Multiplicity = 1
 Redundant internal coordinates found in file.
 P,0,-0.2241592016,0.1811293064,-0.2371809794
 F,0,0.604712114,-1.3298904016,0.048328385
 O,0,-1.76412016,-0.441171746,-0.9482279431
 O,0,0.5640091622,0.9554426163,-1.3548185108
 O,0,-0.6918143643,0.7328168934,1.1838058948
 O,0,-2.7438131377,-0.6755115826,0.1969200122
 H,0,-2.3533842927,-0.0639960859,0.8894551413
 Recover connectivity data from disk.
                          Input orientation:                          
 ---------------------------------------------------------------------
 Center     Atomic      Atomic             Coordinates (Angstroms)
 Number     Number       Type             X           Y           Z
 ---------------------------------------------------------------------
      1         15           0       -0.224159    0.181129   -0.237181
      2          9           0        0.604712   -1.329890    0.048328
      3          8           0       -1.764120   -0.441172   -0.948228
      4          8           0        0.564009    0.955443   -1.354819
      5          8           0       -0.691814    0.732817    1.183806
      6          8           0       -2.743813   -0.675512    0.196920
      7          1           0       -2.353384   -0.063996    0.889455
 ---------------------------------------------------------------------
                    Distance matrix (angstroms):
                    1          2          3          4          5
     1  P    0.000000
     2  F    1.746918   0.000000
     3  O    1.806745   2.719248   0.000000
     4  O    1.571586   2.682019   2.745184   0.000000
     5  O    1.594448   2.687946   2.659635   2.840998   0.000000
     6  O    2.696467   3.415101   1.525148   4.001199   2.677318
     7  H    2.421362   3.325705   1.966360   3.819320   1.866110
                    6          7
     6  O    0.000000
     7  H    1.002991   0.000000
 Stoichiometry    FHO4P(1-)
 Framework group  C1[X(FHO4P)]
 Deg. of freedom    15
 Full point group                 C1      NOp   1
 Largest Abelian subgroup         C1      NOp   1
 Largest concise Abelian subgroup C1      NOp   1
                         Standard orientation:                         
 ---------------------------------------------------------------------
 Center     Atomic      Atomic             Coordinates (Angstroms)
 Number     Number       Type             X           Y           Z
 ---------------------------------------------------------------------
      1         15           0       -0.482619    0.066149   -0.152556
      2          9           0       -0.872119   -1.269461    0.903928
      3          8           0        0.950785    0.739616    0.716997
      4          8           0       -1.656284    1.107240   -0.060230
      5          8           0        0.166309   -0.554641   -1.470046
      6          8           0        2.194117    0.044257    0.172315
      7          1           0        1.848941   -0.258864   -0.719292
 ---------------------------------------------------------------------
 Rotational constants (GHZ):      4.0702948      2.2920846      2.2427686
 Standard basis: 6-311G(d,p) (5D, 7F)
 There are   128 symmetry adapted cartesian basis functions of A   symmetry.
 There are   122 symmetry adapted basis functions of A   symmetry.
   122 basis functions,   214 primitive gaussians,   128 cartesian basis functions
    29 alpha electrons       29 beta electrons
       nuclear repulsion energy       328.1445772602 Hartrees.
 NAtoms=    7 NActive=    7 NUniq=    7 SFac= 1.00D+00 NAtFMM=   60 NAOKFM=F Big=F
 Integral buffers will be    131072 words long.
 Raffenetti 2 integral format.
 Two-electron integral symmetry is turned on.
 One-electron integrals computed using PRISM.
 NBasis=   122 RedAO= T EigKep=  1.85D-02  NBF=   122
 NBsUse=   122 1.00D-06 EigRej= -1.00D+00 NBFU=   122
 Initial guess from the checkpoint file:  "H2FPO4-A.chk"
 B after Tr=     0.000000    0.000000    0.000000
         Rot=    1.000000    0.000000    0.000000    0.000000 Ang=   0.00 deg.
 Keep R1 ints in memory in canonical form, NReq=29294463.
 Requested convergence on RMS density matrix=1.00D-08 within 128 cycles.
 Requested convergence on MAX density matrix=1.00D-06.
 Requested convergence on             energy=1.00D-06.
 No special actions if energy rises.
 SCF Done:  E(RB3LYP) =  -742.892472200     A.U. after    1 cycles
            NFock=  1  Conv=0.27D-08     -V/T= 2.0028

 **********************************************************************

            Population analysis using the SCF density.

 **********************************************************************

 Orbital symmetries:
       Occupied  (A) (A) (A) (A) (A) (A) (A) (A) (A) (A) (A) (A)
                 (A) (A) (A) (A) (A) (A) (A) (A) (A) (A) (A) (A)
                 (A) (A) (A) (A) (A)
       Virtual   (A) (A) (A) (A) (A) (A) (A) (A) (A) (A) (A) (A)
                 (A) (A) (A) (A) (A) (A) (A) (A) (A) (A) (A) (A)
                 (A) (A) (A) (A) (A) (A) (A) (A) (A) (A) (A) (A)
                 (A) (A) (A) (A) (A) (A) (A) (A) (A) (A) (A) (A)
                 (A) (A) (A) (A) (A) (A) (A) (A) (A) (A) (A) (A)
                 (A) (A) (A) (A) (A) (A) (A) (A) (A) (A) (A) (A)
                 (A) (A) (A) (A) (A) (A) (A) (A) (A) (A) (A) (A)
                 (A) (A) (A) (A) (A) (A) (A) (A) (A)
 The electronic state is 1-A.
 Alpha  occ. eigenvalues --  -77.03309 -24.48942 -19.01843 -19.00493 -18.92954
 Alpha  occ. eigenvalues --  -18.92817  -6.50772  -4.67176  -4.67033  -4.66700
 Alpha  occ. eigenvalues --   -0.99801  -0.91658  -0.80459  -0.76575  -0.71914
 Alpha  occ. eigenvalues --   -0.41243  -0.35471  -0.28496  -0.27734  -0.26404
 Alpha  occ. eigenvalues --   -0.25340  -0.22544  -0.21012  -0.19704  -0.15464
 Alpha  occ. eigenvalues --   -0.14472  -0.12604  -0.11672  -0.10552
 Alpha virt. eigenvalues --    0.12427   0.16990   0.23907   0.24768   0.27661
 Alpha virt. eigenvalues --    0.30232   0.34668   0.36754   0.44780   0.52183
 Alpha virt. eigenvalues --    0.54881   0.75616   0.77083   0.87732   0.89177
 Alpha virt. eigenvalues --    0.90848   0.92156   0.94190   0.99571   1.01907
 Alpha virt. eigenvalues --    1.04351   1.05929   1.06869   1.08822   1.12971
 Alpha virt. eigenvalues --    1.15065   1.17283   1.21566   1.24768   1.28143
 Alpha virt. eigenvalues --    1.28920   1.35160   1.42895   1.48453   1.54124
 Alpha virt. eigenvalues --    1.63243   1.70312   1.73776   1.75241   1.89038
 Alpha virt. eigenvalues --    1.96109   2.18661   2.56015   2.66447   2.76040
 Alpha virt. eigenvalues --    2.89689   2.98242   3.01021   3.01353   3.02113
 Alpha virt. eigenvalues --    3.05433   3.08662   3.10033   3.14715   3.17716
 Alpha virt. eigenvalues --    3.21995   3.24496   3.25443   3.38654   3.50299
 Alpha virt. eigenvalues --    3.57180   3.71666   3.88747   3.96644   3.96649
 Alpha virt. eigenvalues --    3.99368   4.01828   4.19826   4.78998   4.88272
 Alpha virt. eigenvalues --    4.93709   4.95822   4.98628   4.99901   5.04875
 Alpha virt. eigenvalues --    5.09428   5.13858   5.18057   5.34491   5.55505
 Alpha virt. eigenvalues --    6.25666   6.27536   6.30625   7.01862  13.91327
 Alpha virt. eigenvalues --   13.94663  14.09834  49.88034  49.90979  49.95740
 Alpha virt. eigenvalues --   50.01027  66.87131 163.00799
          Condensed to atoms (all electrons):
               1          2          3          4          5          6
     1  P   12.467788   0.193515   0.192119   0.499656   0.431202  -0.013286
     2  F    0.193515   9.303117  -0.013745  -0.019169  -0.018354   0.000239
     3  O    0.192119  -0.013745   8.237164  -0.018116  -0.028336   0.066133
     4  O    0.499656  -0.019169  -0.018116   8.201007  -0.019632   0.000335
     5  O    0.431202  -0.018354  -0.028336  -0.019632   8.306967  -0.024025
     6  O   -0.013286   0.000239   0.066133   0.000335  -0.024025   8.004166
     7  H   -0.026546  -0.000742  -0.024359  -0.000651   0.063939   0.271920
               7
     1  P   -0.026546
     2  F   -0.000742
     3  O   -0.024359
     4  O   -0.000651
     5  O    0.063939
     6  O    0.271920
     7  H    0.455596
 Mulliken charges:
               1
     1  P    1.255554
     2  F   -0.444861
     3  O   -0.410860
     4  O   -0.643430
     5  O   -0.711761
     6  O   -0.305483
     7  H    0.260842
 Sum of Mulliken charges =  -1.00000
 Mulliken charges with hydrogens summed into heavy atoms:
               1
     1  P    1.255554
     2  F   -0.444861
     3  O   -0.410860
     4  O   -0.643430
     5  O   -0.711761
     6  O   -0.044641
 Electronic spatial extent (au):  <R**2>=            621.6587
 Charge=             -1.0000 electrons
 Dipole moment (field-independent basis, Debye):
    X=              1.0778    Y=             -0.8095    Z=             -0.0012  Tot=              1.3479
 Quadrupole moment (field-independent basis, Debye-Ang):
   XX=            -53.4672   YY=            -48.3131   ZZ=            -48.2088
   XY=              1.5283   XZ=             -1.9895   YZ=             -0.8363
 Traceless Quadrupole moment (field-independent basis, Debye-Ang):
   XX=             -3.4708   YY=              1.6832   ZZ=              1.7876
   XY=              1.5283   XZ=             -1.9895   YZ=             -0.8363
 Octapole moment (field-independent basis, Debye-Ang**2):
  XXX=              1.4280  YYY=             -6.1459  ZZZ=             12.7121  XYY=              6.6636
  XXY=            -12.5337  XXZ=             -6.4052  XZZ=              0.9917  YZZ=              2.8865
  YYZ=              0.0520  XYZ=             -2.3598
 Hexadecapole moment (field-independent basis, Debye-Ang**3):
 XXXX=           -434.2790 YYYY=           -171.6698 ZZZZ=           -179.7083 XXXY=             11.9777
 XXXZ=            -15.9405 YYYX=              7.7773 YYYZ=             -3.8079 ZZZX=             -3.5838
 ZZZY=             -9.1908 XXYY=           -102.5185 XXZZ=            -89.1753 YYZZ=            -58.7468
 XXYZ=              2.4051 YYXZ=             -0.3842 ZZXY=              0.0479
 N-N= 3.281445772602D+02 E-N=-2.432672998938D+03  KE= 7.408060977535D+02
 1\1\GINC-INDIO\SP\RB3LYP\6-311G(d,p)\F1H1O4P1(1-)\SARARIOP\23-Jun-2017
 \0\\# B3LYP/6-311G** geom=check guess=read output=wfx\\Title Card Requ
 ired\\-1,1\P,0,-0.2241592016,0.1811293064,-0.2371809794\F,0,0.60471211
 4,-1.3298904016,0.048328385\O,0,-1.76412016,-0.441171746,-0.9482279431
 \O,0,0.5640091622,0.9554426163,-1.3548185108\O,0,-0.6918143643,0.73281
 68934,1.1838058948\O,0,-2.7438131377,-0.6755115826,0.1969200122\H,0,-2
 .3533842927,-0.0639960859,0.8894551413\\Version=AM64L-G09RevD.01\State
 =1-A\HF=-742.8924722\RMSD=2.685e-09\Dipole=-0.3017492,-0.2731359,0.339
 9717\Quadrupole=-1.3987213,0.8797205,0.5190008,-2.6011777,0.6047849,0.
 4789431\PG=C01 [X(F1H1O4P1)]\\@

 Writing a WFNX file to "H2FPO4-A.wfx"


 Age does not diminish the extreme disappointment of
 having a scoop of ice cream fall from the cone.
 -- Jim Fiebig
 Job cpu time:       0 days  0 hours  0 minutes 20.1 seconds.
 File lengths (MBytes):  RWF=      7 Int=      0 D2E=      0 Chk=      3 Scr=      1
 Normal termination of Gaussian 09 at Fri Jun 23 03:57:53 2017.
