 Entering Gaussian System, Link 0=g09
 Initial command:
 /usr/local/gaussian/gaussian09.d1/g09/l1.exe "/scratch/sarariop/H2FPO4-h2o.com/Gau-3830.inp" -scrdir="/scratch/sarariop/H2FPO4-h2o.com/"
 Default is to use a total of  10 processors:
                               10 via shared-memory
                                1 via Linda
 Entering Link 1 = /usr/local/gaussian/gaussian09.d1/g09/l1.exe PID=      3831.
  
 Copyright (c) 1988,1990,1992,1993,1995,1998,2003,2009,2013,
            Gaussian, Inc.  All Rights Reserved.
  
 This is part of the Gaussian(R) 09 program.  It is based on
 the Gaussian(R) 03 system (copyright 2003, Gaussian, Inc.),
 the Gaussian(R) 98 system (copyright 1998, Gaussian, Inc.),
 the Gaussian(R) 94 system (copyright 1995, Gaussian, Inc.),
 the Gaussian 92(TM) system (copyright 1992, Gaussian, Inc.),
 the Gaussian 90(TM) system (copyright 1990, Gaussian, Inc.),
 the Gaussian 88(TM) system (copyright 1988, Gaussian, Inc.),
 the Gaussian 86(TM) system (copyright 1986, Carnegie Mellon
 University), and the Gaussian 82(TM) system (copyright 1983,
 Carnegie Mellon University). Gaussian is a federally registered
 trademark of Gaussian, Inc.
  
 This software contains proprietary and confidential information,
 including trade secrets, belonging to Gaussian, Inc.
  
 This software is provided under written license and may be
 used, copied, transmitted, or stored only in accord with that
 written license.
  
 The following legend is applicable only to US Government
 contracts under FAR:
  
                    RESTRICTED RIGHTS LEGEND
  
 Use, reproduction and disclosure by the US Government is
 subject to restrictions as set forth in subparagraphs (a)
 and (c) of the Commercial Computer Software - Restricted
 Rights clause in FAR 52.227-19.
  
 Gaussian, Inc.
 340 Quinnipiac St., Bldg. 40, Wallingford CT 06492
  
  
 ---------------------------------------------------------------
 Warning -- This program may not be used in any manner that
 competes with the business of Gaussian, Inc. or will provide
 assistance to any competitor of Gaussian, Inc.  The licensee
 of this program is prohibited from giving any competitor of
 Gaussian, Inc. access to this program.  By using this program,
 the user acknowledges that Gaussian, Inc. is engaged in the
 business of creating and licensing software in the field of
 computational chemistry and represents and warrants to the
 licensee that it is not a competitor of Gaussian, Inc. and that
 it will not use this program in any manner prohibited above.
 ---------------------------------------------------------------
  

 Cite this work as:
 Gaussian 09, Revision D.01,
 M. J. Frisch, G. W. Trucks, H. B. Schlegel, G. E. Scuseria, 
 M. A. Robb, J. R. Cheeseman, G. Scalmani, V. Barone, B. Mennucci, 
 G. A. Petersson, H. Nakatsuji, M. Caricato, X. Li, H. P. Hratchian, 
 A. F. Izmaylov, J. Bloino, G. Zheng, J. L. Sonnenberg, M. Hada, 
 M. Ehara, K. Toyota, R. Fukuda, J. Hasegawa, M. Ishida, T. Nakajima, 
 Y. Honda, O. Kitao, H. Nakai, T. Vreven, J. A. Montgomery, Jr., 
 J. E. Peralta, F. Ogliaro, M. Bearpark, J. J. Heyd, E. Brothers, 
 K. N. Kudin, V. N. Staroverov, T. Keith, R. Kobayashi, J. Normand, 
 K. Raghavachari, A. Rendell, J. C. Burant, S. S. Iyengar, J. Tomasi, 
 M. Cossi, N. Rega, J. M. Millam, M. Klene, J. E. Knox, J. B. Cross, 
 V. Bakken, C. Adamo, J. Jaramillo, R. Gomperts, R. E. Stratmann, 
 O. Yazyev, A. J. Austin, R. Cammi, C. Pomelli, J. W. Ochterski, 
 R. L. Martin, K. Morokuma, V. G. Zakrzewski, G. A. Voth, 
 P. Salvador, J. J. Dannenberg, S. Dapprich, A. D. Daniels, 
 O. Farkas, J. B. Foresman, J. V. Ortiz, J. Cioslowski, 
 and D. J. Fox, Gaussian, Inc., Wallingford CT, 2013.
 
 ******************************************
 Gaussian 09:  AM64L-G09RevD.01 24-Apr-2013
                23-Jun-2017 
 ******************************************
 %chk=H2FPO4-h2o.chk
 Default route:  MaxDisk=70GB
 -----------------------------------------
 # opt freq b3lyp/6-311g geom=connectivity
 -----------------------------------------
 1/14=-1,18=20,19=15,26=3,38=1,57=2/1,3;
 2/9=110,12=2,17=6,18=5,40=1/2;
 3/5=4,6=6,11=2,16=1,25=1,30=1,71=1,74=-5/1,2,3;
 4//1;
 5/5=2,38=5/2;
 6/7=2,8=2,9=2,10=2,28=1/1;
 7//1,2,3,16;
 1/14=-1,18=20,19=15,26=3/3(2);
 2/9=110/2;
 99//99;
 2/9=110/2;
 3/5=4,6=6,11=2,16=1,25=1,30=1,71=1,74=-5/1,2,3;
 4/5=5,16=3,69=1/1;
 5/5=2,38=5/2;
 7//1,2,3,16;
 1/14=-1,18=20,19=15,26=3/3(-5);
 2/9=110/2;
 6/7=2,8=2,9=2,10=2,19=2,28=1/1;
 99/9=1/99;
 -------------------
 Title Card Required
 -------------------
 Symbolic Z-matrix:
 Charge =  0 Multiplicity = 1
 P                    -0.89195   1.15394   0. 
 F                     0.10698  -0.02893  -0.26153 
 O                    -2.2315    0.2914   -0.35238 
 O                    -0.65592   2.08322  -1.27079 
 H                    -0.47301   2.99803  -1.02496 
 O                    -0.81076   1.7955    1.31187 
 O                    -3.35846   1.21057  -0.24993 
 H                    -3.7301    0.93072   0.60106 
 O                    -1.20626   3.78482   0.3873 
 H                    -0.24626   3.78482   0.3873 
 H                    -1.52671   4.68976   0.3873 
 
 Add virtual bond connecting atoms O7         and O3         Dist= 2.76D+00.
 Add virtual bond connecting atoms O9         and H5         Dist= 3.35D+00.
 Add virtual bond connecting atoms H10        and H5         Dist= 3.08D+00.

 GradGradGradGradGradGradGradGradGradGradGradGradGradGradGradGradGradGrad
 Berny optimization.
 Initialization pass.
                           ----------------------------
                           !    Initial Parameters    !
                           ! (Angstroms and Degrees)  !
 --------------------------                            --------------------------
 ! Name  Definition              Value          Derivative Info.                !
 --------------------------------------------------------------------------------
 ! R1    R(1,2)                  1.5702         estimate D2E/DX2                !
 ! R2    R(1,3)                  1.6317         estimate D2E/DX2                !
 ! R3    R(1,4)                  1.5919         estimate D2E/DX2                !
 ! R4    R(1,6)                  1.4626         estimate D2E/DX2                !
 ! R5    R(3,7)                  1.4579         estimate D2E/DX2                !
 ! R6    R(4,5)                  0.9648         estimate D2E/DX2                !
 ! R7    R(5,9)                  1.7752         estimate D2E/DX2                !
 ! R8    R(5,10)                 1.6325         estimate D2E/DX2                !
 ! R9    R(7,8)                  0.9698         estimate D2E/DX2                !
 ! R10   R(9,10)                 0.96           estimate D2E/DX2                !
 ! R11   R(9,11)                 0.96           estimate D2E/DX2                !
 ! A1    A(2,1,3)               95.0532         estimate D2E/DX2                !
 ! A2    A(2,1,4)              102.2672         estimate D2E/DX2                !
 ! A3    A(2,1,6)              116.3933         estimate D2E/DX2                !
 ! A4    A(3,1,4)              104.9453         estimate D2E/DX2                !
 ! A5    A(3,1,6)              118.1084         estimate D2E/DX2                !
 ! A6    A(4,1,6)              116.8546         estimate D2E/DX2                !
 ! A7    A(1,3,7)              106.6272         estimate D2E/DX2                !
 ! A8    A(1,4,5)              112.2234         estimate D2E/DX2                !
 ! A9    A(4,5,9)              123.0032         estimate D2E/DX2                !
 ! A10   A(4,5,10)             134.7319         estimate D2E/DX2                !
 ! A11   A(3,7,8)              100.1339         estimate D2E/DX2                !
 ! A12   A(5,9,11)             123.7581         estimate D2E/DX2                !
 ! A13   A(10,9,11)            109.5            estimate D2E/DX2                !
 ! D1    D(2,1,3,7)           -177.115          estimate D2E/DX2                !
 ! D2    D(4,1,3,7)            -72.9703         estimate D2E/DX2                !
 ! D3    D(6,1,3,7)             59.3005         estimate D2E/DX2                !
 ! D4    D(2,1,4,5)           -127.9104         estimate D2E/DX2                !
 ! D5    D(3,1,4,5)            133.3854         estimate D2E/DX2                !
 ! D6    D(6,1,4,5)              0.406          estimate D2E/DX2                !
 ! D7    D(1,3,7,8)           -103.9422         estimate D2E/DX2                !
 ! D8    D(1,4,5,9)            -34.001          estimate D2E/DX2                !
 ! D9    D(1,4,5,10)             5.2809         estimate D2E/DX2                !
 ! D10   D(4,5,9,11)          -139.2082         estimate D2E/DX2                !
 ! D11   D(5,9,10,11)          119.123          estimate D2E/DX2                !
 --------------------------------------------------------------------------------
 Trust Radius=3.00D-01 FncErr=1.00D-07 GrdErr=1.00D-06
 Number of steps in this run=     45 maximum allowed number of steps=    100.
 GradGradGradGradGradGradGradGradGradGradGradGradGradGradGradGradGradGrad

                          Input orientation:                          
 ---------------------------------------------------------------------
 Center     Atomic      Atomic             Coordinates (Angstroms)
 Number     Number       Type             X           Y           Z
 ---------------------------------------------------------------------
      1         15           0       -0.891947    1.153944    0.000000
      2          9           0        0.106979   -0.028929   -0.261533
      3          8           0       -2.231498    0.291399   -0.352383
      4          8           0       -0.655919    2.083219   -1.270793
      5          1           0       -0.473008    2.998029   -1.024957
      6          8           0       -0.810759    1.795501    1.311867
      7          8           0       -3.358465    1.210570   -0.249932
      8          1           0       -3.730102    0.930723    0.601056
      9          8           0       -1.206260    3.784824    0.387298
     10          1           0       -0.246260    3.784824    0.387298
     11          1           0       -1.526714    4.689760    0.387298
 ---------------------------------------------------------------------
                    Distance matrix (angstroms):
                    1          2          3          4          5
     1  P    0.000000
     2  F    1.570172   0.000000
     3  O    1.631734   2.362062   0.000000
     4  O    1.591910   2.462070   2.556667   0.000000
     5  H    2.150976   3.175165   3.297042   0.964764   0.000000
     6  O    1.462594   2.578057   2.655287   2.603246   2.649697
     7  O    2.479795   3.680461   1.457884   3.017852   3.481600
     8  H    2.909677   4.048232   1.887749   3.779242   4.186446
     9  O    2.677746   4.085375   3.715139   2.438770   1.775153
    10  H    2.736502   3.884646   4.085623   2.410922   1.632460
    11  H    3.613160   5.035470   4.515465   3.209612   2.442686
                    6          7          8          9         10
     6  O    0.000000
     7  O    3.045023   0.000000
     8  H    3.126605   0.969850   0.000000
     9  O    2.229048   3.415382   3.815935   0.000000
    10  H    2.265147   4.088847   4.508740   0.960000   0.000000
    11  H    3.121563   3.983232   4.362450   0.960000   1.567952
                   11
    11  H    0.000000
 Stoichiometry    FH4O5P
 Framework group  C1[X(FH4O5P)]
 Deg. of freedom    27
 Full point group                 C1      NOp   1
 Largest Abelian subgroup         C1      NOp   1
 Largest concise Abelian subgroup C1      NOp   1
                         Standard orientation:                         
 ---------------------------------------------------------------------
 Center     Atomic      Atomic             Coordinates (Angstroms)
 Number     Number       Type             X           Y           Z
 ---------------------------------------------------------------------
      1         15           0        0.309469   -0.381144   -0.110372
      2          9           0        1.422065   -1.487749   -0.055623
      3          8           0        1.340157    0.868711    0.084822
      4          8           0       -0.404428   -0.549079    1.302541
      5          1           0       -1.360881   -0.643989    1.219116
      6          8           0       -0.553519   -0.384696   -1.291228
      7          8           0        0.525462    2.076419    0.140862
      8          1           0        0.687488    2.432884   -0.746431
      9          8           0       -2.308197    0.178113   -0.037033
     10          1           0       -2.397094   -0.777761   -0.035193
     11          1           0       -3.165941    0.580022    0.118993
 ---------------------------------------------------------------------
 Rotational constants (GHZ):      2.5425819      2.0866610      1.5422825
 Standard basis: 6-311G (5D, 7F)
 There are   111 symmetry adapted cartesian basis functions of A   symmetry.
 There are   111 symmetry adapted basis functions of A   symmetry.
   111 basis functions,   216 primitive gaussians,   111 cartesian basis functions
    34 alpha electrons       34 beta electrons
       nuclear repulsion energy       473.6647736463 Hartrees.



 Warning!  P  atom    1 may be hypervalent but has no d functions.



 NAtoms=   11 NActive=   11 NUniq=   11 SFac= 1.00D+00 NAtFMM=   60 NAOKFM=F Big=F
 Integral buffers will be    131072 words long.
 Raffenetti 2 integral format.
 Two-electron integral symmetry is turned on.
 One-electron integrals computed using PRISM.
 NBasis=   111 RedAO= T EigKep=  1.18D-02  NBF=   111
 NBsUse=   111 1.00D-06 EigRej= -1.00D+00 NBFU=   111
 ExpMin= 6.85D-02 ExpMax= 7.75D+04 ExpMxC= 2.65D+03 IAcc=2 IRadAn=         4 AccDes= 0.00D+00
 Harris functional with IExCor=  402 and IRadAn=       4 diagonalized for initial guess.
 HarFok:  IExCor=  402 AccDes= 0.00D+00 IRadAn=         4 IDoV= 1 UseB2=F ITyADJ=14
 ICtDFT=  3500011 ScaDFX=  1.000000  1.000000  1.000000  1.000000
 FoFCou: FMM=F IPFlag=           0 FMFlag=      100000 FMFlg1=           0
         NFxFlg=           0 DoJE=T BraDBF=F KetDBF=T FulRan=T
         wScrn=  0.000000 ICntrl=     500 IOpCl=  0 I1Cent=   200000004 NGrid=           0
         NMat0=    1 NMatS0=      1 NMatT0=    0 NMatD0=    1 NMtDS0=    0 NMtDT0=    0
 Petite list used in FoFCou.
 Keep R1 ints in memory in canonical form, NReq=20311593.
 Requested convergence on RMS density matrix=1.00D-08 within 128 cycles.
 Requested convergence on MAX density matrix=1.00D-06.
 Requested convergence on             energy=1.00D-06.
 No special actions if energy rises.
 Integral accuracy reduced to 1.0D-05 until final iterations.
 Initial convergence to 1.0D-05 achieved.  Increase integral accuracy.
 SCF Done:  E(RB3LYP) =  -819.552501393     A.U. after   16 cycles
            NFock= 16  Conv=0.44D-08     -V/T= 2.0003

 **********************************************************************

            Population analysis using the SCF density.

 **********************************************************************

 Orbital symmetries:
       Occupied  (A) (A) (A) (A) (A) (A) (A) (A) (A) (A) (A) (A)
                 (A) (A) (A) (A) (A) (A) (A) (A) (A) (A) (A) (A)
                 (A) (A) (A) (A) (A) (A) (A) (A) (A) (A)
       Virtual   (A) (A) (A) (A) (A) (A) (A) (A) (A) (A) (A) (A)
                 (A) (A) (A) (A) (A) (A) (A) (A) (A) (A) (A) (A)
                 (A) (A) (A) (A) (A) (A) (A) (A) (A) (A) (A) (A)
                 (A) (A) (A) (A) (A) (A) (A) (A) (A) (A) (A) (A)
                 (A) (A) (A) (A) (A) (A) (A) (A) (A) (A) (A) (A)
                 (A) (A) (A) (A) (A) (A) (A) (A) (A) (A) (A) (A)
                 (A) (A) (A) (A) (A)
 The electronic state is 1-A.
 Alpha  occ. eigenvalues --  -77.28276 -24.71276 -19.22848 -19.22238 -19.17747
 Alpha  occ. eigenvalues --  -19.15966 -19.11907  -6.78039  -4.94141  -4.94015
 Alpha  occ. eigenvalues --   -4.93965  -1.28018  -1.18972  -1.12159  -1.07203
 Alpha  occ. eigenvalues --   -1.04381  -0.96585  -0.68181  -0.60907  -0.60045
 Alpha  occ. eigenvalues --   -0.56305  -0.53225  -0.50570  -0.47287  -0.46102
 Alpha  occ. eigenvalues --   -0.45807  -0.43198  -0.39662  -0.38840  -0.36181
 Alpha  occ. eigenvalues --   -0.35630  -0.34601  -0.32413  -0.30476
 Alpha virt. eigenvalues --   -0.05591  -0.02660   0.02287   0.04401   0.06838
 Alpha virt. eigenvalues --    0.07561   0.09567   0.11699   0.16251   0.18712
 Alpha virt. eigenvalues --    0.20594   0.24030   0.33954   0.35474   0.36820
 Alpha virt. eigenvalues --    0.39161   0.42603   0.66266   0.69304   0.72605
 Alpha virt. eigenvalues --    0.75824   0.78619   0.81338   0.82773   0.84293
 Alpha virt. eigenvalues --    0.86661   0.86989   0.88524   0.93387   0.96648
 Alpha virt. eigenvalues --    1.00196   1.02146   1.05862   1.10367   1.12309
 Alpha virt. eigenvalues --    1.14144   1.22748   1.26151   1.35071   1.40918
 Alpha virt. eigenvalues --    1.48567   1.54039   1.59131   1.78908   2.07540
 Alpha virt. eigenvalues --    2.13479   2.15479   2.25868   4.39285   4.65728
 Alpha virt. eigenvalues --    4.69011   4.72438   4.75102   4.76678   4.81132
 Alpha virt. eigenvalues --    4.84647   4.86194   4.87825   4.89730   4.91508
 Alpha virt. eigenvalues --    4.97819   5.09995   5.18097   6.04314   6.05326
 Alpha virt. eigenvalues --    6.07099   6.70240  13.66640  13.68623  13.81129
 Alpha virt. eigenvalues --   49.64944  49.67345  49.70853  49.72997  49.85345
 Alpha virt. eigenvalues --   66.64820 162.77388
          Condensed to atoms (all electrons):
               1          2          3          4          5          6
     1  P   12.712485   0.077851   0.112366   0.112098  -0.040399   0.311550
     2  F    0.077851   9.475048  -0.045495  -0.050351  -0.001103  -0.041365
     3  O    0.112366  -0.045495   8.514624  -0.067035  -0.000705  -0.055341
     4  O    0.112098  -0.050351  -0.067035   8.617817   0.221814  -0.070837
     5  H   -0.040399  -0.001103  -0.000705   0.221814   0.380791  -0.002057
     6  O    0.311550  -0.041365  -0.055341  -0.070837  -0.002057   8.583592
     7  O   -0.020371   0.001188  -0.003001   0.002829   0.000782   0.001405
     8  H   -0.006938  -0.000312  -0.030618  -0.000688  -0.000059   0.003156
     9  O    0.010711  -0.000039  -0.000482  -0.045663   0.068500  -0.075695
    10  H   -0.005373  -0.000124   0.000195   0.004825  -0.008570   0.014937
    11  H    0.001369   0.000027  -0.000022   0.001557  -0.001888   0.004959
               7          8          9         10         11
     1  P   -0.020371  -0.006938   0.010711  -0.005373   0.001369
     2  F    0.001188  -0.000312  -0.000039  -0.000124   0.000027
     3  O   -0.003001  -0.030618  -0.000482   0.000195  -0.000022
     4  O    0.002829  -0.000688  -0.045663   0.004825   0.001557
     5  H    0.000782  -0.000059   0.068500  -0.008570  -0.001888
     6  O    0.001405   0.003156  -0.075695   0.014937   0.004959
     7  O    8.127841   0.222140   0.000255  -0.000019   0.000296
     8  H    0.222140   0.408173   0.000336  -0.000032  -0.000018
     9  O    0.000255   0.000336   8.309337   0.204029   0.241431
    10  H   -0.000019  -0.000032   0.204029   0.446769  -0.020866
    11  H    0.000296  -0.000018   0.241431  -0.020866   0.373234
 Mulliken charges:
               1
     1  P    1.734651
     2  F   -0.415326
     3  O   -0.424486
     4  O   -0.726367
     5  H    0.382893
     6  O   -0.674305
     7  O   -0.333345
     8  H    0.404858
     9  O   -0.712720
    10  H    0.364228
    11  H    0.399919
 Sum of Mulliken charges =   0.00000
 Mulliken charges with hydrogens summed into heavy atoms:
               1
     1  P    1.734651
     2  F   -0.415326
     3  O   -0.424486
     4  O   -0.343473
     6  O   -0.674305
     7  O    0.071513
     9  O    0.051427
 Electronic spatial extent (au):  <R**2>=            827.0767
 Charge=              0.0000 electrons
 Dipole moment (field-independent basis, Debye):
    X=             -4.4523    Y=              0.7412    Z=             -0.0595  Tot=              4.5140
 Quadrupole moment (field-independent basis, Debye-Ang):
   XX=            -36.4857   YY=            -43.3965   ZZ=            -53.4264
   XY=              4.0397   XZ=             -6.4320   YZ=             -5.4019
 Traceless Quadrupole moment (field-independent basis, Debye-Ang):
   XX=              7.9505   YY=              1.0397   ZZ=             -8.9902
   XY=              4.0397   XZ=             -6.4320   YZ=             -5.4019
 Octapole moment (field-independent basis, Debye-Ang**2):
  XXX=            -56.9962  YYY=             14.4808  ZZZ=              1.5204  XYY=             -6.6073
  XXY=              0.4202  XXZ=              7.0526  XZZ=              3.9954  YZZ=              5.0646
  YYZ=            -11.4971  XYZ=             -1.7826
 Hexadecapole moment (field-independent basis, Debye-Ang**3):
 XXXX=           -274.1697 YYYY=           -286.1579 ZZZZ=           -184.2773 XXXY=            -12.8861
 XXXZ=            -18.2869 YYYX=             11.6587 YYYZ=            -30.5836 ZZZX=             -9.2280
 ZZZY=             -4.4096 XXYY=           -115.7425 XXZZ=            -96.5182 YYZZ=            -76.8295
 XXYZ=             -5.0023 YYXZ=            -10.2095 ZZXY=             -0.1169
 N-N= 4.736647736463D+02 E-N=-2.892429194098D+03  KE= 8.192878482783D+02
 Calling FoFJK, ICntrl=      2127 FMM=F ISym2X=0 I1Cent= 0 IOpClX= 0 NMat=1 NMatS=1 NMatT=0.
 ***** Axes restored to original set *****
 -------------------------------------------------------------------
 Center     Atomic                   Forces (Hartrees/Bohr)
 Number     Number              X              Y              Z
 -------------------------------------------------------------------
      1       15          -0.015669806    0.003941965   -0.026373529
      2        9           0.047669174   -0.057246065   -0.013382147
      3        8          -0.023404205   -0.043873879   -0.013337461
      4        8           0.019317706    0.006416816   -0.044379727
      5        1          -0.013689036    0.007484768   -0.014089833
      6        8           0.016598130    0.009319573    0.099534813
      7        8          -0.020409837    0.016299547   -0.006068803
      8        1          -0.008458350   -0.001458861    0.009143558
      9        8          -0.008407834    0.037238553   -0.015252487
     10        1           0.013325685    0.008781605    0.024718100
     11        1          -0.006871627    0.013095979   -0.000512485
 -------------------------------------------------------------------
 Cartesian Forces:  Max     0.099534813 RMS     0.028113499

 GradGradGradGradGradGradGradGradGradGradGradGradGradGradGradGradGradGrad
 Berny optimization.
 FormGI is forming the generalized inverse of G from B-inverse, IUseBI=4.
 Internal  Forces:  Max     0.172472237 RMS     0.049815701
 Search for a local minimum.
 Step number   1 out of a maximum of   45
 All quantities printed in internal units (Hartrees-Bohrs-Radians)
 Mixed Optimization -- RFO/linear search
 Second derivative matrix not updated -- first step.
 ITU=  0
     Eigenvalues ---    0.00529   0.01494   0.02094   0.02993   0.03520
     Eigenvalues ---    0.04901   0.06267   0.08319   0.12054   0.15903
     Eigenvalues ---    0.16000   0.16000   0.17205   0.18192   0.19475
     Eigenvalues ---    0.22466   0.25000   0.25000   0.37230   0.45541
     Eigenvalues ---    0.51798   0.52815   0.53408   0.54461   0.55473
     Eigenvalues ---    0.57447   0.90529
 RFO step:  Lambda=-1.99831399D-01 EMin= 5.29108731D-03
 Linear search not attempted -- first point.
 Maximum step size (   0.300) exceeded in Quadratic search.
    -- Step size scaled by   0.469
 Iteration  1 RMS(Cart)=  0.25736796 RMS(Int)=  0.01850756
 Iteration  2 RMS(Cart)=  0.07080655 RMS(Int)=  0.00146156
 Iteration  3 RMS(Cart)=  0.00212054 RMS(Int)=  0.00056933
 Iteration  4 RMS(Cart)=  0.00000139 RMS(Int)=  0.00056933
 Iteration  5 RMS(Cart)=  0.00000000 RMS(Int)=  0.00056933
 Variable       Old X    -DE/DX   Delta X   Delta X   Delta X     New X
                                 (Linear)    (Quad)   (Total)
    R1        2.96720   0.07568   0.00000   0.04586   0.04586   3.01306
    R2        3.08353   0.06048   0.00000   0.04331   0.04331   3.12684
    R3        3.00827   0.08268   0.00000   0.05329   0.05329   3.06156
    R4        2.76390   0.09428   0.00000   0.04003   0.04003   2.80393
    R5        2.75500   0.03189   0.00000   0.02615   0.02615   2.78116
    R6        1.82314   0.05888   0.00000   0.03711   0.03711   1.86025
    R7        3.35455   0.00353   0.00000   0.00327   0.00353   3.35808
    R8        3.08490   0.03659   0.00000   0.06416   0.06367   3.14857
    R9        1.83275   0.01168   0.00000   0.00747   0.00747   1.84022
   R10        1.81414   0.00772   0.00000   0.00974   0.01010   1.82424
   R11        1.81414   0.01464   0.00000   0.00910   0.00910   1.82324
    A1        1.65899  -0.00124   0.00000  -0.00648  -0.00672   1.65228
    A2        1.78490  -0.01656   0.00000  -0.02136  -0.02135   1.76355
    A3        2.03145  -0.01915   0.00000  -0.02551  -0.02549   2.00595
    A4        1.83164  -0.01322   0.00000  -0.01003  -0.01033   1.82131
    A5        2.06138  -0.01050   0.00000  -0.00897  -0.00943   2.05195
    A6        2.03950   0.04989   0.00000   0.05869   0.05860   2.09810
    A7        1.86100   0.01604   0.00000   0.01673   0.01673   1.87773
    A8        1.95867   0.17247   0.00000   0.22489   0.22489   2.18356
    A9        2.14681   0.10423   0.00000   0.12801   0.12962   2.27643
   A10        2.35151   0.03941   0.00000   0.03694   0.03542   2.38694
   A11        1.74767   0.00783   0.00000   0.01021   0.01021   1.75788
   A12        2.15999  -0.00065   0.00000  -0.00378  -0.00494   2.15504
   A13        1.91114   0.03292   0.00000   0.03729   0.03656   1.94769
    D1       -3.09124  -0.00309   0.00000  -0.00462  -0.00456  -3.09580
    D2       -1.27357  -0.02289   0.00000  -0.03051  -0.03035  -1.30392
    D3        1.03499   0.02605   0.00000   0.03526   0.03503   1.07002
    D4       -2.23246  -0.01679   0.00000  -0.03184  -0.03158  -2.26404
    D5        2.32801  -0.00700   0.00000  -0.01583  -0.01563   2.31239
    D6        0.00709  -0.02162   0.00000  -0.04296  -0.04343  -0.03634
    D7       -1.81413  -0.00285   0.00000  -0.00651  -0.00651  -1.82065
    D8       -0.59343  -0.07608   0.00000  -0.13163  -0.13093  -0.72436
    D9        0.09217  -0.00251   0.00000  -0.04006  -0.04076   0.05141
   D10       -2.42964  -0.02513   0.00000  -0.04829  -0.04743  -2.47707
   D11        2.07909  -0.00855   0.00000  -0.01109  -0.00982   2.06927
         Item               Value     Threshold  Converged?
 Maximum Force            0.172472     0.000450     NO 
 RMS     Force            0.049816     0.000300     NO 
 Maximum Displacement     0.842289     0.001800     NO 
 RMS     Displacement     0.322746     0.001200     NO 
 Predicted change in Energy=-8.334603D-02
 GradGradGradGradGradGradGradGradGradGradGradGradGradGradGradGradGradGrad

                          Input orientation:                          
 ---------------------------------------------------------------------
 Center     Atomic      Atomic             Coordinates (Angstroms)
 Number     Number       Type             X           Y           Z
 ---------------------------------------------------------------------
      1         15           0       -0.911926    0.997643    0.049989
      2          9           0        0.086180   -0.147067   -0.435461
      3          8           0       -2.277015    0.206077   -0.447829
      4          8           0       -0.665478    2.126439   -1.085721
      5          1           0       -0.471357    3.075075   -0.908370
      6          8           0       -0.808038    1.349781    1.487625
      7          8           0       -3.425143    1.085947   -0.176523
      8          1           0       -3.801854    0.654498    0.611025
      9          8           0       -1.169762    4.190650    0.285584
     10          1           0       -0.228493    4.034337    0.432113
     11          1           0       -1.351064    5.120481    0.102788
 ---------------------------------------------------------------------
                    Distance matrix (angstroms):
                    1          2          3          4          5
     1  P    0.000000
     2  F    1.594440   0.000000
     3  O    1.654650   2.389467   0.000000
     4  O    1.620108   2.481261   2.586841   0.000000
     5  H    2.329866   3.304042   3.421060   0.984402   0.000000
     6  O    1.483777   2.595851   2.685505   2.691771   2.971665
     7  O    2.524948   3.730517   1.471725   3.086262   3.635531
     8  H    2.963814   4.105417   1.909813   3.857772   4.388618
     9  O    3.212052   4.573083   4.200087   2.528982   1.777022
    10  H    3.136018   4.282038   4.430159   2.476863   1.666152
    11  H    4.146495   5.486569   5.031096   3.293458   2.445406
                    6          7          8          9         10
     6  O    0.000000
     7  O    3.112593   0.000000
     8  H    3.196057   0.973802   0.000000
     9  O    3.105847   3.865161   4.420202   0.000000
    10  H    2.942247   4.391128   4.921811   0.965346   0.000000
    11  H    4.053496   4.545028   5.119538   0.964816   1.596349
                   11
    11  H    0.000000
 Stoichiometry    FH4O5P
 Framework group  C1[X(FH4O5P)]
 Deg. of freedom    27
 Full point group                 C1      NOp   1
 Largest Abelian subgroup         C1      NOp   1
 Largest concise Abelian subgroup C1      NOp   1
                         Standard orientation:                         
 ---------------------------------------------------------------------
 Center     Atomic      Atomic             Coordinates (Angstroms)
 Number     Number       Type             X           Y           Z
 ---------------------------------------------------------------------
      1         15           0        0.398835   -0.386810   -0.132143
      2          9           0        1.480736   -1.500643    0.229940
      3          8           0        1.368618    0.885418    0.290733
      4          8           0       -0.629926   -0.537939    1.110259
      5          1           0       -1.606157   -0.634505    1.028431
      6          8           0       -0.103644   -0.433096   -1.527480
      7          8           0        0.585273    2.119008    0.115806
      8          1           0        0.971452    2.463337   -0.709176
      9          8           0       -2.759890    0.189217   -0.043105
     10          1           0       -2.713869   -0.760517   -0.209777
     11          1           0       -3.644027    0.458754    0.233521
 ---------------------------------------------------------------------
 Rotational constants (GHZ):      2.4226000      1.7053152      1.3248856
 Standard basis: 6-311G (5D, 7F)
 There are   111 symmetry adapted cartesian basis functions of A   symmetry.
 There are   111 symmetry adapted basis functions of A   symmetry.
   111 basis functions,   216 primitive gaussians,   111 cartesian basis functions
    34 alpha electrons       34 beta electrons
       nuclear repulsion energy       453.5965407922 Hartrees.



 Warning!  P  atom    1 may be hypervalent but has no d functions.



 NAtoms=   11 NActive=   11 NUniq=   11 SFac= 1.00D+00 NAtFMM=   60 NAOKFM=F Big=F
 Integral buffers will be    131072 words long.
 Raffenetti 2 integral format.
 Two-electron integral symmetry is turned on.
 One-electron integrals computed using PRISM.
 NBasis=   111 RedAO= T EigKep=  1.34D-02  NBF=   111
 NBsUse=   111 1.00D-06 EigRej= -1.00D+00 NBFU=   111
 Initial guess from the checkpoint file:  "H2FPO4-h2o.chk"
 B after Tr=     0.000000    0.000000    0.000000
         Rot=    0.998537    0.006547    0.053636   -0.002172 Ang=   6.20 deg.
 ExpMin= 6.85D-02 ExpMax= 7.75D+04 ExpMxC= 2.65D+03 IAcc=2 IRadAn=         4 AccDes= 0.00D+00
 Harris functional with IExCor=  402 and IRadAn=       4 diagonalized for initial guess.
 HarFok:  IExCor=  402 AccDes= 0.00D+00 IRadAn=         4 IDoV= 1 UseB2=F ITyADJ=14
 ICtDFT=  3500011 ScaDFX=  1.000000  1.000000  1.000000  1.000000
 FoFCou: FMM=F IPFlag=           0 FMFlag=      100000 FMFlg1=           0
         NFxFlg=           0 DoJE=T BraDBF=F KetDBF=T FulRan=T
         wScrn=  0.000000 ICntrl=     500 IOpCl=  0 I1Cent=   200000004 NGrid=           0
         NMat0=    1 NMatS0=      1 NMatT0=    0 NMatD0=    1 NMtDS0=    0 NMtDT0=    0
 Petite list used in FoFCou.
 Keep R1 ints in memory in canonical form, NReq=20311593.
 Requested convergence on RMS density matrix=1.00D-08 within 128 cycles.
 Requested convergence on MAX density matrix=1.00D-06.
 Requested convergence on             energy=1.00D-06.
 No special actions if energy rises.
 Integral accuracy reduced to 1.0D-05 until final iterations.
 Initial convergence to 1.0D-05 achieved.  Increase integral accuracy.
 SCF Done:  E(RB3LYP) =  -819.591562120     A.U. after   15 cycles
            NFock= 15  Conv=0.47D-08     -V/T= 2.0010
 Calling FoFJK, ICntrl=      2127 FMM=F ISym2X=0 I1Cent= 0 IOpClX= 0 NMat=1 NMatS=1 NMatT=0.
 ***** Axes restored to original set *****
 -------------------------------------------------------------------
 Center     Atomic                   Forces (Hartrees/Bohr)
 Number     Number              X              Y              Z
 -------------------------------------------------------------------
      1       15          -0.007102874    0.031352673   -0.030181259
      2        9           0.034378474   -0.040076531   -0.017287375
      3        8          -0.019834402   -0.030567720   -0.015026327
      4        8           0.016459546    0.006789877   -0.022280438
      5        1          -0.020924673   -0.013304863   -0.001590782
      6        8           0.006899563    0.017892610    0.069433293
      7        8          -0.012931465    0.013606629   -0.002227689
      8        1          -0.005279913   -0.003321057    0.005944492
      9        8           0.001871311    0.001193359   -0.007179394
     10        1           0.007189165    0.010672484    0.019610835
     11        1          -0.000724733    0.005762539    0.000784644
 -------------------------------------------------------------------
 Cartesian Forces:  Max     0.069433293 RMS     0.020799846

 GradGradGradGradGradGradGradGradGradGradGradGradGradGradGradGradGradGrad
 Berny optimization.
 Using GEDIIS/GDIIS optimizer.
 FormGI is forming the generalized inverse of G from B-inverse, IUseBI=4.
 Internal  Forces:  Max     0.072008493 RMS     0.018808714
 Search for a local minimum.
 Step number   2 out of a maximum of   45
 All quantities printed in internal units (Hartrees-Bohrs-Radians)
 Mixed Optimization -- RFO/linear search
 Update second derivatives using D2CorX and points    1    2
 DE= -3.91D-02 DEPred=-8.33D-02 R= 4.69D-01
 Trust test= 4.69D-01 RLast= 3.41D-01 DXMaxT set to 3.00D-01
 ITU=  0  0
 Use linear search instead of GDIIS.
     Eigenvalues ---    0.00529   0.01654   0.02199   0.02993   0.03586
     Eigenvalues ---    0.04829   0.06261   0.08540   0.11724   0.15935
     Eigenvalues ---    0.15996   0.17297   0.17939   0.18281   0.22260
     Eigenvalues ---    0.24831   0.24965   0.36578   0.42660   0.46190
     Eigenvalues ---    0.51395   0.53267   0.53748   0.54891   0.55520
     Eigenvalues ---    0.79138   0.87508
 RFO step:  Lambda=-6.30254839D-02 EMin= 5.29117651D-03
 Quartic linear search produced a step of  0.98244.
 Maximum step size (   0.300) exceeded in Quadratic search.
    -- Step size scaled by   0.582
 Iteration  1 RMS(Cart)=  0.22791373 RMS(Int)=  0.03926955
 Iteration  2 RMS(Cart)=  0.08946392 RMS(Int)=  0.00835601
 Iteration  3 RMS(Cart)=  0.00581959 RMS(Int)=  0.00555759
 Iteration  4 RMS(Cart)=  0.00008313 RMS(Int)=  0.00555738
 Iteration  5 RMS(Cart)=  0.00000414 RMS(Int)=  0.00555738
 Iteration  6 RMS(Cart)=  0.00000010 RMS(Int)=  0.00555738
 Variable       Old X    -DE/DX   Delta X   Delta X   Delta X     New X
                                 (Linear)    (Quad)   (Total)
    R1        3.01306   0.05556   0.04505   0.06169   0.10675   3.11980
    R2        3.12684   0.04449   0.04255   0.06457   0.10712   3.23395
    R3        3.06156   0.01582   0.05235  -0.01151   0.04084   3.10240
    R4        2.80393   0.07201   0.03933   0.04871   0.08803   2.89197
    R5        2.78116   0.02103   0.02570   0.03648   0.06217   2.84333
    R6        1.86025   0.00377   0.03646  -0.02232   0.01414   1.87439
    R7        3.35808  -0.00243   0.00347  -0.02377  -0.02028   3.33780
    R8        3.14857   0.02401   0.06255   0.24384   0.30138   3.44995
    R9        1.84022   0.00833   0.00734   0.00989   0.01722   1.85744
   R10        1.82424   0.00196   0.00992   0.00410   0.02336   1.84760
   R11        1.82324   0.00555   0.00894   0.00291   0.01185   1.83509
    A1        1.65228  -0.00058  -0.00660  -0.00421  -0.01104   1.64124
    A2        1.76355  -0.00039  -0.02098   0.00447  -0.01641   1.74713
    A3        2.00595   0.00002  -0.02505   0.00586  -0.01910   1.98685
    A4        1.82131   0.00320  -0.01015   0.02290   0.01209   1.83341
    A5        2.05195   0.00097  -0.00927   0.01357   0.00339   2.05534
    A6        2.09810  -0.00280   0.05757  -0.03603   0.02115   2.11925
    A7        1.87773   0.00737   0.01644   0.01725   0.03369   1.91142
    A8        2.18356  -0.00288   0.22094  -0.09659   0.12435   2.30791
    A9        2.27643   0.02092   0.12734   0.05240   0.18722   2.46364
   A10        2.38694   0.00287   0.03480  -0.05013  -0.00519   2.38175
   A11        1.75788   0.00314   0.01003   0.01219   0.02222   1.78010
   A12        2.15504  -0.00007  -0.00486  -0.00034  -0.01407   2.14097
   A13        1.94769   0.00642   0.03592  -0.00812   0.02616   1.97386
    D1       -3.09580  -0.00006  -0.00448  -0.00029  -0.00466  -3.10046
    D2       -1.30392  -0.00018  -0.02981   0.00642  -0.02329  -1.32721
    D3        1.07002  -0.00010   0.03442  -0.01015   0.02406   1.09408
    D4       -2.26404  -0.00112  -0.03103  -0.03132  -0.06205  -2.32609
    D5        2.31239  -0.00113  -0.01535  -0.03345  -0.04832   2.26406
    D6       -0.03634  -0.00338  -0.04266  -0.04451  -0.08795  -0.12430
    D7       -1.82065  -0.00259  -0.00640  -0.05046  -0.05686  -1.87750
    D8       -0.72436  -0.00842  -0.12863  -0.10804  -0.21854  -0.94290
    D9        0.05141   0.00499  -0.04004  -0.09408  -0.15226  -0.10085
   D10       -2.47707  -0.00635  -0.04660  -0.08940  -0.13459  -2.61166
   D11        2.06927   0.00150  -0.00965   0.03466   0.03319   2.10245
         Item               Value     Threshold  Converged?
 Maximum Force            0.072008     0.000450     NO 
 RMS     Force            0.018809     0.000300     NO 
 Maximum Displacement     0.618626     0.001800     NO 
 RMS     Displacement     0.304927     0.001200     NO 
 Predicted change in Energy=-9.819724D-03
 GradGradGradGradGradGradGradGradGradGradGradGradGradGradGradGradGradGrad

                          Input orientation:                          
 ---------------------------------------------------------------------
 Center     Atomic      Atomic             Coordinates (Angstroms)
 Number     Number       Type             X           Y           Z
 ---------------------------------------------------------------------
      1         15           0       -0.901146    0.896744    0.066279
      2          9           0        0.096699   -0.218674   -0.630653
      3          8           0       -2.332473    0.146013   -0.496191
      4          8           0       -0.661619    2.168491   -0.943938
      5          1           0       -0.483107    3.129494   -0.775288
      6          8           0       -0.715044    1.033428    1.579122
      7          8           0       -3.525678    0.961356   -0.077415
      8          1           0       -3.918099    0.401319    0.628623
      9          8           0       -1.138788    4.518013    0.097566
     10          1           0       -0.411502    4.226404    0.682314
     11          1           0       -1.033193    5.431271   -0.215200
 ---------------------------------------------------------------------
                    Distance matrix (angstroms):
                    1          2          3          4          5
     1  P    0.000000
     2  F    1.650929   0.000000
     3  O    1.711334   2.460071   0.000000
     4  O    1.641722   2.524232   2.661324   0.000000
     5  H    2.422429   3.401076   3.521250   0.991885   0.000000
     6  O    1.530362   2.666419   2.776779   2.767137   3.160780
     7  O    2.629256   3.849695   1.504625   3.226587   3.800669
     8  H    3.108646   4.253089   1.960765   4.024985   4.605765
     9  O    3.629193   4.949034   4.570756   2.613939   1.766290
    10  H    3.421386   4.662710   4.661393   2.634817   1.825635
    11  H    4.545173   5.776775   5.449866   3.363757   2.431969
                    6          7          8          9         10
     6  O    0.000000
     7  O    3.263276   0.000000
     8  H    3.400378   0.982917   0.000000
     9  O    3.810104   4.286918   4.995373   0.000000
    10  H    3.330389   4.575567   5.189448   0.977707   0.000000
    11  H    4.760444   5.119727   5.859619   0.971089   1.625957
                   11
    11  H    0.000000
 Stoichiometry    FH4O5P
 Framework group  C1[X(FH4O5P)]
 Deg. of freedom    27
 Full point group                 C1      NOp   1
 Largest Abelian subgroup         C1      NOp   1
 Largest concise Abelian subgroup C1      NOp   1
                         Standard orientation:                         
 ---------------------------------------------------------------------
 Center     Atomic      Atomic             Coordinates (Angstroms)
 Number     Number       Type             X           Y           Z
 ---------------------------------------------------------------------
      1         15           0        0.453819   -0.408900   -0.143579
      2          9           0        1.470242   -1.552944    0.475787
      3          8           0        1.391314    0.905323    0.424388
      4          8           0       -0.795363   -0.530164    0.914764
      5          1           0       -1.776802   -0.589022    0.783809
      6          8           0        0.234798   -0.528375   -1.653468
      7          8           0        0.707060    2.198993    0.074944
      8          1           0        1.280631    2.545689   -0.644044
      9          8           0       -3.111914    0.253196   -0.008608
     10          1           0       -2.932637   -0.483899   -0.625424
     11          1           0       -4.017815    0.245451    0.341102
 ---------------------------------------------------------------------
 Rotational constants (GHZ):      2.2493947      1.4506940      1.1486463
 Standard basis: 6-311G (5D, 7F)
 There are   111 symmetry adapted cartesian basis functions of A   symmetry.
 There are   111 symmetry adapted basis functions of A   symmetry.
   111 basis functions,   216 primitive gaussians,   111 cartesian basis functions
    34 alpha electrons       34 beta electrons
       nuclear repulsion energy       434.8532046696 Hartrees.



 Warning!  P  atom    1 may be hypervalent but has no d functions.



 NAtoms=   11 NActive=   11 NUniq=   11 SFac= 1.00D+00 NAtFMM=   60 NAOKFM=F Big=F
 Integral buffers will be    131072 words long.
 Raffenetti 2 integral format.
 Two-electron integral symmetry is turned on.
 One-electron integrals computed using PRISM.
 NBasis=   111 RedAO= T EigKep=  1.53D-02  NBF=   111
 NBsUse=   111 1.00D-06 EigRej= -1.00D+00 NBFU=   111
 Initial guess from the checkpoint file:  "H2FPO4-h2o.chk"
 B after Tr=     0.000000    0.000000    0.000000
         Rot=    0.999328    0.009674    0.034453    0.007991 Ang=   4.20 deg.
 ExpMin= 6.85D-02 ExpMax= 7.75D+04 ExpMxC= 2.65D+03 IAcc=2 IRadAn=         4 AccDes= 0.00D+00
 Harris functional with IExCor=  402 and IRadAn=       4 diagonalized for initial guess.
 HarFok:  IExCor=  402 AccDes= 0.00D+00 IRadAn=         4 IDoV= 1 UseB2=F ITyADJ=14
 ICtDFT=  3500011 ScaDFX=  1.000000  1.000000  1.000000  1.000000
 FoFCou: FMM=F IPFlag=           0 FMFlag=      100000 FMFlg1=           0
         NFxFlg=           0 DoJE=T BraDBF=F KetDBF=T FulRan=T
         wScrn=  0.000000 ICntrl=     500 IOpCl=  0 I1Cent=   200000004 NGrid=           0
         NMat0=    1 NMatS0=      1 NMatT0=    0 NMatD0=    1 NMtDS0=    0 NMtDT0=    0
 Petite list used in FoFCou.
 Keep R1 ints in memory in canonical form, NReq=20311593.
 Requested convergence on RMS density matrix=1.00D-08 within 128 cycles.
 Requested convergence on MAX density matrix=1.00D-06.
 Requested convergence on             energy=1.00D-06.
 No special actions if energy rises.
 Integral accuracy reduced to 1.0D-05 until final iterations.
 Initial convergence to 1.0D-05 achieved.  Increase integral accuracy.
 SCF Done:  E(RB3LYP) =  -819.612342995     A.U. after   16 cycles
            NFock= 16  Conv=0.39D-08     -V/T= 2.0017
 Calling FoFJK, ICntrl=      2127 FMM=F ISym2X=0 I1Cent= 0 IOpClX= 0 NMat=1 NMatS=1 NMatT=0.
 ***** Axes restored to original set *****
 -------------------------------------------------------------------
 Center     Atomic                   Forces (Hartrees/Bohr)
 Number     Number              X              Y              Z
 -------------------------------------------------------------------
      1       15          -0.000741840    0.023042127   -0.011367003
      2        9           0.010064304   -0.013574587   -0.009024068
      3        8          -0.012917703   -0.011575345   -0.004875954
      4        8           0.009399410   -0.005213762   -0.007244608
      5        1          -0.020143387   -0.008025488    0.003392623
      6        8           0.001886509    0.006733536    0.021937021
      7        8           0.000809015    0.006598293    0.000166758
      8        1           0.002352053   -0.003297982   -0.000689563
      9        8           0.013460209   -0.008514082   -0.004580340
     10        1          -0.005780964    0.014570333    0.008501779
     11        1           0.001612394   -0.000743043    0.003783355
 -------------------------------------------------------------------
 Cartesian Forces:  Max     0.023042127 RMS     0.009852482

 GradGradGradGradGradGradGradGradGradGradGradGradGradGradGradGradGradGrad
 Berny optimization.
 Using GEDIIS/GDIIS optimizer.
 FormGI is forming the generalized inverse of G from B-inverse, IUseBI=4.
 Internal  Forces:  Max     0.022517987 RMS     0.008345888
 Search for a local minimum.
 Step number   3 out of a maximum of   45
 All quantities printed in internal units (Hartrees-Bohrs-Radians)
 Mixed Optimization -- RFO/linear search
 Update second derivatives using D2CorX and points    2    3
 DE= -2.08D-02 DEPred=-9.82D-03 R= 2.12D+00
 TightC=F SS=  1.41D+00  RLast= 5.40D-01 DXNew= 5.0454D-01 1.6196D+00
 Trust test= 2.12D+00 RLast= 5.40D-01 DXMaxT set to 5.05D-01
 ITU=  1  0  0
 Use linear search instead of GDIIS.
     Eigenvalues ---    0.00532   0.01365   0.01953   0.02993   0.03369
     Eigenvalues ---    0.03901   0.06271   0.08563   0.11283   0.13979
     Eigenvalues ---    0.15496   0.16719   0.17429   0.18413   0.20636
     Eigenvalues ---    0.23988   0.25411   0.26824   0.38142   0.46962
     Eigenvalues ---    0.51251   0.53438   0.53901   0.54438   0.55796
     Eigenvalues ---    0.61666   0.94452
 RFO step:  Lambda=-2.19183763D-02 EMin= 5.31610797D-03
 Quartic linear search produced a step of  0.81882.
 Iteration  1 RMS(Cart)=  0.16246129 RMS(Int)=  0.09316298
 Iteration  2 RMS(Cart)=  0.15319465 RMS(Int)=  0.04594057
 Iteration  3 RMS(Cart)=  0.04631610 RMS(Int)=  0.02269903
 Iteration  4 RMS(Cart)=  0.00346555 RMS(Int)=  0.02246467
 Iteration  5 RMS(Cart)=  0.00019781 RMS(Int)=  0.02246435
 Iteration  6 RMS(Cart)=  0.00003616 RMS(Int)=  0.02246435
 Iteration  7 RMS(Cart)=  0.00000280 RMS(Int)=  0.02246435
 Iteration  8 RMS(Cart)=  0.00000044 RMS(Int)=  0.02246435
 Variable       Old X    -DE/DX   Delta X   Delta X   Delta X     New X
                                 (Linear)    (Quad)   (Total)
    R1        3.11980   0.01906   0.08741   0.00123   0.08864   3.20845
    R2        3.23395   0.01357   0.08771  -0.00287   0.08484   3.31879
    R3        3.10240  -0.00873   0.03344  -0.03873  -0.00529   3.09712
    R4        2.89197   0.02252   0.07208  -0.00510   0.06699   2.95895
    R5        2.84333  -0.00085   0.05091  -0.03063   0.02028   2.86361
    R6        1.87439  -0.00270   0.01158  -0.00899   0.00259   1.87698
    R7        3.33780  -0.01046  -0.01661  -0.16563  -0.16449   3.17332
    R8        3.44995   0.01751   0.24678   0.32682   0.53862   3.98857
    R9        1.85744   0.00044   0.01410  -0.00685   0.00726   1.86470
   R10        1.84760  -0.00919   0.01913  -0.02834   0.03498   1.88258
   R11        1.83509  -0.00174   0.00971  -0.00992  -0.00021   1.83488
    A1        1.64124  -0.00206  -0.00904  -0.01273  -0.02174   1.61950
    A2        1.74713   0.00247  -0.01344   0.01611   0.00279   1.74992
    A3        1.98685   0.00355  -0.01564   0.02458   0.00901   1.99586
    A4        1.83341   0.00231   0.00990   0.00109   0.01070   1.84411
    A5        2.05534   0.00184   0.00277   0.00456   0.00697   2.06230
    A6        2.11925  -0.00679   0.01732  -0.02767  -0.01063   2.10862
    A7        1.91142  -0.00844   0.02759  -0.06254  -0.03495   1.87646
    A8        2.30791  -0.01785   0.10182  -0.08115   0.02067   2.32858
    A9        2.46364   0.01364   0.15330   0.10185   0.23986   2.70350
   A10        2.38175   0.00353  -0.00425  -0.03949   0.03460   2.41634
   A11        1.78010  -0.00746   0.01819  -0.07293  -0.05473   1.72537
   A12        2.14097  -0.00145  -0.01152   0.00206  -0.03469   2.10628
   A13        1.97386   0.00018   0.02142  -0.04883  -0.04807   1.92578
    D1       -3.10046   0.00021  -0.00382  -0.00329  -0.00704  -3.10750
    D2       -1.32721   0.00249  -0.01907   0.00998  -0.00924  -1.33645
    D3        1.09408  -0.00339   0.01970  -0.02612  -0.00634   1.08774
    D4       -2.32609  -0.00114  -0.05080  -0.04261  -0.09338  -2.41947
    D5        2.26406  -0.00018  -0.03957  -0.03410  -0.07346   2.19060
    D6       -0.12430   0.00131  -0.07202  -0.01364  -0.08589  -0.21019
    D7       -1.87750  -0.00128  -0.04655  -0.07542  -0.12197  -1.99948
    D8       -0.94290   0.00055  -0.17895  -0.13649  -0.25894  -1.20184
    D9       -0.10085   0.00092  -0.12467  -0.18400  -0.36516  -0.46601
   D10       -2.61166  -0.00520  -0.11021  -0.15194  -0.25333  -2.86500
   D11        2.10245   0.00458   0.02717   0.10231   0.14611   2.24856
         Item               Value     Threshold  Converged?
 Maximum Force            0.022518     0.000450     NO 
 RMS     Force            0.008346     0.000300     NO 
 Maximum Displacement     1.145024     0.001800     NO 
 RMS     Displacement     0.318729     0.001200     NO 
 Predicted change in Energy=-9.471211D-03
 GradGradGradGradGradGradGradGradGradGradGradGradGradGradGradGradGradGrad

                          Input orientation:                          
 ---------------------------------------------------------------------
 Center     Atomic      Atomic             Coordinates (Angstroms)
 Number     Number       Type             X           Y           Z
 ---------------------------------------------------------------------
      1         15           0       -0.885928    0.851033    0.045906
      2          9           0        0.082957   -0.252145   -0.806683
      3          8           0       -2.375134    0.103836   -0.509343
      4          8           0       -0.689913    2.188648   -0.880613
      5          1           0       -0.557325    3.150542   -0.671475
      6          8           0       -0.611146    0.895279    1.586781
      7          8           0       -3.527691    0.909210    0.055716
      8          1           0       -3.915051    0.223549    0.650283
      9          8           0       -1.022168    4.662009   -0.106444
     10          1           0       -1.017423    4.508089    0.877801
     11          1           0       -0.505129    5.453811   -0.326708
 ---------------------------------------------------------------------
                    Distance matrix (angstroms):
                    1          2          3          4          5
     1  P    0.000000
     2  F    1.697837   0.000000
     3  O    1.756229   2.501469   0.000000
     4  O    1.638924   2.561302   2.706336   0.000000
     5  H    2.431122   3.465043   3.551498   0.993256   0.000000
     6  O    1.565809   2.743544   2.851627   2.786941   3.191994
     7  O    2.642421   3.889635   1.515357   3.250639   3.791497
     8  H    3.151919   4.281718   1.931427   4.075141   4.646359
     9  O    3.816453   5.085327   4.771771   2.612900   1.679248
    10  H    3.752786   5.167993   4.813003   2.929008   2.110659
    11  H    4.633510   5.756227   5.670318   3.316963   2.329514
                    6          7          8          9         10
     6  O    0.000000
     7  O    3.294023   0.000000
     8  H    3.499148   0.986757   0.000000
     9  O    4.150205   4.515246   5.351761   0.000000
    10  H    3.704066   4.464213   5.177383   0.996219   0.000000
    11  H    4.944986   5.471336   6.319630   0.970976   1.614831
                   11
    11  H    0.000000
 Stoichiometry    FH4O5P
 Framework group  C1[X(FH4O5P)]
 Deg. of freedom    27
 Full point group                 C1      NOp   1
 Largest Abelian subgroup         C1      NOp   1
 Largest concise Abelian subgroup C1      NOp   1
                         Standard orientation:                         
 ---------------------------------------------------------------------
 Center     Atomic      Atomic             Coordinates (Angstroms)
 Number     Number       Type             X           Y           Z
 ---------------------------------------------------------------------
      1         15           0        0.470780   -0.416623   -0.158272
      2          9           0        1.422238   -1.610559    0.584623
      3          8           0        1.433710    0.889850    0.512722
      4          8           0       -0.876300   -0.496138    0.771849
      5          1           0       -1.848287   -0.466023    0.569630
      6          8           0        0.378246   -0.541599   -1.716341
      7          8           0        0.805513    2.194819    0.066927
      8          1           0        1.538011    2.528943   -0.503596
      9          8           0       -3.276867    0.265690    0.076042
     10          1           0       -3.130452    0.327203   -0.907437
     11          1           0       -4.135521   -0.146710    0.264281
 ---------------------------------------------------------------------
 Rotational constants (GHZ):      2.1948073      1.3398592      1.0799708
 Standard basis: 6-311G (5D, 7F)
 There are   111 symmetry adapted cartesian basis functions of A   symmetry.
 There are   111 symmetry adapted basis functions of A   symmetry.
   111 basis functions,   216 primitive gaussians,   111 cartesian basis functions
    34 alpha electrons       34 beta electrons
       nuclear repulsion energy       426.3703985585 Hartrees.



 Warning!  P  atom    1 may be hypervalent but has no d functions.



 NAtoms=   11 NActive=   11 NUniq=   11 SFac= 1.00D+00 NAtFMM=   60 NAOKFM=F Big=F
 Integral buffers will be    131072 words long.
 Raffenetti 2 integral format.
 Two-electron integral symmetry is turned on.
 One-electron integrals computed using PRISM.
 NBasis=   111 RedAO= T EigKep=  1.55D-02  NBF=   111
 NBsUse=   111 1.00D-06 EigRej= -1.00D+00 NBFU=   111
 Initial guess from the checkpoint file:  "H2FPO4-h2o.chk"
 B after Tr=     0.000000    0.000000    0.000000
         Rot=    0.999835   -0.004765    0.013566    0.011071 Ang=  -2.08 deg.
 ExpMin= 6.85D-02 ExpMax= 7.75D+04 ExpMxC= 2.65D+03 IAcc=2 IRadAn=         4 AccDes= 0.00D+00
 Harris functional with IExCor=  402 and IRadAn=       4 diagonalized for initial guess.
 HarFok:  IExCor=  402 AccDes= 0.00D+00 IRadAn=         4 IDoV= 1 UseB2=F ITyADJ=14
 ICtDFT=  3500011 ScaDFX=  1.000000  1.000000  1.000000  1.000000
 FoFCou: FMM=F IPFlag=           0 FMFlag=      100000 FMFlg1=           0
         NFxFlg=           0 DoJE=T BraDBF=F KetDBF=T FulRan=T
         wScrn=  0.000000 ICntrl=     500 IOpCl=  0 I1Cent=   200000004 NGrid=           0
         NMat0=    1 NMatS0=      1 NMatT0=    0 NMatD0=    1 NMtDS0=    0 NMtDT0=    0
 Petite list used in FoFCou.
 Keep R1 ints in memory in canonical form, NReq=20311593.
 Requested convergence on RMS density matrix=1.00D-08 within 128 cycles.
 Requested convergence on MAX density matrix=1.00D-06.
 Requested convergence on             energy=1.00D-06.
 No special actions if energy rises.
 Integral accuracy reduced to 1.0D-05 until final iterations.
 Initial convergence to 1.0D-05 achieved.  Increase integral accuracy.
 SCF Done:  E(RB3LYP) =  -819.625970820     A.U. after   15 cycles
            NFock= 15  Conv=0.10D-07     -V/T= 2.0020
 Calling FoFJK, ICntrl=      2127 FMM=F ISym2X=0 I1Cent= 0 IOpClX= 0 NMat=1 NMatS=1 NMatT=0.
 ***** Axes restored to original set *****
 -------------------------------------------------------------------
 Center     Atomic                   Forces (Hartrees/Bohr)
 Number     Number              X              Y              Z
 -------------------------------------------------------------------
      1       15           0.006800756    0.007241335    0.000016804
      2        9          -0.002877220    0.001899311    0.001702691
      3        8           0.000702746   -0.000331268   -0.000933235
      4        8           0.003445999   -0.014096439   -0.004613081
      5        1          -0.012579171    0.004891491    0.006926828
      6        8          -0.003484911    0.002539536   -0.006797019
      7        8           0.001599553   -0.002959041    0.003545973
      8        1           0.000239369    0.003259315   -0.002109866
      9        8           0.011062097   -0.010741258    0.021380951
     10        1          -0.002972722    0.007667318   -0.019252422
     11        1          -0.001936496    0.000629700    0.000132377
 -------------------------------------------------------------------
 Cartesian Forces:  Max     0.021380951 RMS     0.007422536

 GradGradGradGradGradGradGradGradGradGradGradGradGradGradGradGradGradGrad
 Berny optimization.
 Using GEDIIS/GDIIS optimizer.
 FormGI is forming the generalized inverse of G from B-inverse, IUseBI=4.
 Internal  Forces:  Max     0.020508988 RMS     0.006239016
 Search for a local minimum.
 Step number   4 out of a maximum of   45
 All quantities printed in internal units (Hartrees-Bohrs-Radians)
 Mixed Optimization -- RFO/linear search
 Update second derivatives using D2CorX and points    3    4
 DE= -1.36D-02 DEPred=-9.47D-03 R= 1.44D+00
 TightC=F SS=  1.41D+00  RLast= 8.54D-01 DXNew= 8.4853D-01 2.5608D+00
 Trust test= 1.44D+00 RLast= 8.54D-01 DXMaxT set to 8.49D-01
 ITU=  1  1  0  0
 Use linear search instead of GDIIS.
     Eigenvalues ---    0.00526   0.00923   0.01203   0.02632   0.02994
     Eigenvalues ---    0.03591   0.06041   0.08035   0.11176   0.12518
     Eigenvalues ---    0.15526   0.16917   0.17430   0.18510   0.20703
     Eigenvalues ---    0.23972   0.25423   0.26440   0.38316   0.47039
     Eigenvalues ---    0.50396   0.53436   0.53722   0.54701   0.55703
     Eigenvalues ---    0.62404   0.97810
 RFO step:  Lambda=-5.57568313D-03 EMin= 5.26176909D-03
 Quartic linear search produced a step of  0.24261.
 Iteration  1 RMS(Cart)=  0.11450926 RMS(Int)=  0.02330909
 Iteration  2 RMS(Cart)=  0.02711847 RMS(Int)=  0.01094951
 Iteration  3 RMS(Cart)=  0.00126619 RMS(Int)=  0.01089319
 Iteration  4 RMS(Cart)=  0.00006156 RMS(Int)=  0.01089314
 Iteration  5 RMS(Cart)=  0.00000284 RMS(Int)=  0.01089314
 Iteration  6 RMS(Cart)=  0.00000015 RMS(Int)=  0.01089314
 Variable       Old X    -DE/DX   Delta X   Delta X   Delta X     New X
                                 (Linear)    (Quad)   (Total)
    R1        3.20845  -0.00373   0.02151  -0.00488   0.01662   3.22507
    R2        3.31879  -0.00229   0.02058  -0.00209   0.01849   3.33728
    R3        3.09712  -0.01247  -0.00128  -0.01811  -0.01939   3.07773
    R4        2.95895  -0.00724   0.01625  -0.00718   0.00907   2.96802
    R5        2.86361  -0.00071   0.00492   0.00480   0.00972   2.87333
    R6        1.87698   0.00346   0.00063   0.01353   0.01416   1.89114
    R7        3.17332  -0.00750  -0.03991  -0.10914  -0.13144   3.04188
    R8        3.98857   0.00362   0.13067   0.10375   0.21082   4.19939
    R9        1.86470  -0.00363   0.00176  -0.00694  -0.00518   1.85952
   R10        1.88258  -0.02051   0.00849  -0.04083  -0.00803   1.87455
   R11        1.83488  -0.00055  -0.00005   0.00100   0.00095   1.83583
    A1        1.61950  -0.00033  -0.00527   0.00292  -0.00234   1.61716
    A2        1.74992   0.00262   0.00068   0.01450   0.01516   1.76508
    A3        1.99586   0.00251   0.00219   0.01324   0.01542   2.01128
    A4        1.84411   0.00032   0.00260  -0.00637  -0.00391   1.84019
    A5        2.06230  -0.00075   0.00169  -0.01222  -0.01068   2.05162
    A6        2.10862  -0.00309  -0.00258  -0.00559  -0.00834   2.10027
    A7        1.87646  -0.00671  -0.00848  -0.02085  -0.02933   1.84713
    A8        2.32858  -0.01683   0.00501  -0.06342  -0.05841   2.27018
    A9        2.70350   0.00850   0.05819   0.06539   0.10697   2.81047
   A10        2.41634   0.00861   0.00839   0.03053   0.07260   2.48894
   A11        1.72537   0.00249  -0.01328   0.03350   0.02023   1.74559
   A12        2.10628  -0.00299  -0.00841   0.00408  -0.02437   2.08192
   A13        1.92578   0.00057  -0.01166   0.01263  -0.01580   1.90998
    D1       -3.10750  -0.00027  -0.00171  -0.00649  -0.00821  -3.11571
    D2       -1.33645   0.00239  -0.00224   0.00882   0.00651  -1.32994
    D3        1.08774  -0.00278  -0.00154  -0.01972  -0.02118   1.06656
    D4       -2.41947  -0.00053  -0.02265  -0.00959  -0.03226  -2.45173
    D5        2.19060  -0.00104  -0.01782  -0.01570  -0.03346   2.15714
    D6       -0.21019   0.00307  -0.02084   0.01716  -0.00372  -0.21391
    D7       -1.99948  -0.00075  -0.02959  -0.07084  -0.10043  -2.09990
    D8       -1.20184   0.00470  -0.06282   0.00656  -0.04083  -1.24267
    D9       -0.46601  -0.00346  -0.08859  -0.07834  -0.18236  -0.64837
   D10       -2.86500  -0.00160  -0.06146  -0.03056  -0.08900  -2.95400
   D11        2.24856   0.00666   0.03545   0.10922   0.15549   2.40405
         Item               Value     Threshold  Converged?
 Maximum Force            0.020509     0.000450     NO 
 RMS     Force            0.006239     0.000300     NO 
 Maximum Displacement     0.500942     0.001800     NO 
 RMS     Displacement     0.130129     0.001200     NO 
 Predicted change in Energy=-4.244403D-03
 GradGradGradGradGradGradGradGradGradGradGradGradGradGradGradGradGradGrad

                          Input orientation:                          
 ---------------------------------------------------------------------
 Center     Atomic      Atomic             Coordinates (Angstroms)
 Number     Number       Type             X           Y           Z
 ---------------------------------------------------------------------
      1         15           0       -0.862656    0.855656    0.015418
      2          9           0        0.095536   -0.260947   -0.849254
      3          8           0       -2.367457    0.087070   -0.498054
      4          8           0       -0.714767    2.183935   -0.915358
      5          1           0       -0.613839    3.144971   -0.655122
      6          8           0       -0.575179    0.931645    1.557621
      7          8           0       -3.486177    0.916392    0.112360
      8          1           0       -3.929213    0.229360    0.660079
      9          8           0       -0.958606    4.615915   -0.099636
     10          1           0       -1.282510    4.649513    0.837358
     11          1           0       -0.329082    5.340350   -0.250192
 ---------------------------------------------------------------------
                    Distance matrix (angstroms):
                    1          2          3          4          5
     1  P    0.000000
     2  F    1.706632   0.000000
     3  O    1.766013   2.512129   0.000000
     4  O    1.628662   2.576511   2.702290   0.000000
     5  H    2.398436   3.484419   3.528541   1.000749   0.000000
     6  O    1.570608   2.768607   2.855060   2.775490   3.129942
     7  O    2.626014   3.890951   1.520499   3.216144   3.715631
     8  H    3.195560   4.326326   1.949513   4.078607   4.606761
     9  O    3.763242   5.045485   4.759626   2.576701   1.609691
    10  H    3.904511   5.371805   4.876097   3.077892   2.222220
    11  H    4.524127   5.649221   5.640334   3.248716   2.250499
                    6          7          8          9         10
     6  O    0.000000
     7  O    3.250065   0.000000
     8  H    3.542362   0.984018   0.000000
     9  O    4.058000   4.485536   5.351966   0.000000
    10  H    3.852485   4.395220   5.155019   0.991968   0.000000
    11  H    4.771313   5.447027   6.317576   0.971480   1.602824
                   11
    11  H    0.000000
 Stoichiometry    FH4O5P
 Framework group  C1[X(FH4O5P)]
 Deg. of freedom    27
 Full point group                 C1      NOp   1
 Largest Abelian subgroup         C1      NOp   1
 Largest concise Abelian subgroup C1      NOp   1
                         Standard orientation:                         
 ---------------------------------------------------------------------
 Center     Atomic      Atomic             Coordinates (Angstroms)
 Number     Number       Type             X           Y           Z
 ---------------------------------------------------------------------
      1         15           0        0.458917   -0.418221   -0.160792
      2          9           0        1.425575   -1.641047    0.534092
      3          8           0        1.460289    0.870758    0.513444
      4          8           0       -0.861901   -0.483272    0.789865
      5          1           0       -1.830762   -0.401255    0.553053
      6          8           0        0.315667   -0.484818   -1.723434
      7          8           0        0.806241    2.173475    0.080933
      8          1           0        1.545521    2.574879   -0.429587
      9          8           0       -3.238281    0.234000    0.098686
     10          1           0       -3.235215    0.679949   -0.787384
     11          1           0       -4.049587   -0.291981    0.193022
 ---------------------------------------------------------------------
 Rotational constants (GHZ):      2.2071690      1.3563192      1.0916710
 Standard basis: 6-311G (5D, 7F)
 There are   111 symmetry adapted cartesian basis functions of A   symmetry.
 There are   111 symmetry adapted basis functions of A   symmetry.
   111 basis functions,   216 primitive gaussians,   111 cartesian basis functions
    34 alpha electrons       34 beta electrons
       nuclear repulsion energy       426.9125949589 Hartrees.



 Warning!  P  atom    1 may be hypervalent but has no d functions.



 NAtoms=   11 NActive=   11 NUniq=   11 SFac= 1.00D+00 NAtFMM=   60 NAOKFM=F Big=F
 Integral buffers will be    131072 words long.
 Raffenetti 2 integral format.
 Two-electron integral symmetry is turned on.
 One-electron integrals computed using PRISM.
 NBasis=   111 RedAO= T EigKep=  1.50D-02  NBF=   111
 NBsUse=   111 1.00D-06 EigRej= -1.00D+00 NBFU=   111
 Initial guess from the checkpoint file:  "H2FPO4-h2o.chk"
 B after Tr=     0.000000    0.000000    0.000000
         Rot=    0.999920   -0.010902   -0.006140    0.001771 Ang=  -1.45 deg.
 ExpMin= 6.85D-02 ExpMax= 7.75D+04 ExpMxC= 2.65D+03 IAcc=2 IRadAn=         4 AccDes= 0.00D+00
 Harris functional with IExCor=  402 and IRadAn=       4 diagonalized for initial guess.
 HarFok:  IExCor=  402 AccDes= 0.00D+00 IRadAn=         4 IDoV= 1 UseB2=F ITyADJ=14
 ICtDFT=  3500011 ScaDFX=  1.000000  1.000000  1.000000  1.000000
 FoFCou: FMM=F IPFlag=           0 FMFlag=      100000 FMFlg1=           0
         NFxFlg=           0 DoJE=T BraDBF=F KetDBF=T FulRan=T
         wScrn=  0.000000 ICntrl=     500 IOpCl=  0 I1Cent=   200000004 NGrid=           0
         NMat0=    1 NMatS0=      1 NMatT0=    0 NMatD0=    1 NMtDS0=    0 NMtDT0=    0
 Petite list used in FoFCou.
 Keep R1 ints in memory in canonical form, NReq=20311593.
 Requested convergence on RMS density matrix=1.00D-08 within 128 cycles.
 Requested convergence on MAX density matrix=1.00D-06.
 Requested convergence on             energy=1.00D-06.
 No special actions if energy rises.
 Integral accuracy reduced to 1.0D-05 until final iterations.
 Initial convergence to 1.0D-05 achieved.  Increase integral accuracy.
 SCF Done:  E(RB3LYP) =  -819.630595150     A.U. after   15 cycles
            NFock= 15  Conv=0.48D-08     -V/T= 2.0021
 Calling FoFJK, ICntrl=      2127 FMM=F ISym2X=0 I1Cent= 0 IOpClX= 0 NMat=1 NMatS=1 NMatT=0.
 ***** Axes restored to original set *****
 -------------------------------------------------------------------
 Center     Atomic                   Forces (Hartrees/Bohr)
 Number     Number              X              Y              Z
 -------------------------------------------------------------------
      1       15           0.004000495   -0.000084376    0.006048576
      2        9          -0.004476187    0.004763832    0.003644528
      3        8           0.000656374    0.000890629    0.001719086
      4        8           0.004118529   -0.007565096   -0.007084691
      5        1          -0.010575001    0.002952959    0.007717816
      6        8          -0.002802244    0.000414737   -0.010529136
      7        8           0.001511645   -0.000276948    0.000238016
      8        1           0.002195683    0.000388143   -0.001361415
      9        8           0.003699925    0.000654859    0.020104584
     10        1           0.003753784   -0.001952070   -0.018643735
     11        1          -0.002083004   -0.000186669   -0.001853628
 -------------------------------------------------------------------
 Cartesian Forces:  Max     0.020104584 RMS     0.006365230

 GradGradGradGradGradGradGradGradGradGradGradGradGradGradGradGradGradGrad
 Berny optimization.
 Using GEDIIS/GDIIS optimizer.
 FormGI is forming the generalized inverse of G from B-inverse, IUseBI=4.
 Internal  Forces:  Max     0.014928446 RMS     0.004825744
 Search for a local minimum.
 Step number   5 out of a maximum of   45
 All quantities printed in internal units (Hartrees-Bohrs-Radians)
 Mixed Optimization -- RFO/linear search
 Update second derivatives using D2CorX and points    4    5
 DE= -4.62D-03 DEPred=-4.24D-03 R= 1.09D+00
 TightC=F SS=  1.41D+00  RLast= 4.07D-01 DXNew= 1.4270D+00 1.2221D+00
 Trust test= 1.09D+00 RLast= 4.07D-01 DXMaxT set to 1.22D+00
 ITU=  1  1  1  0  0
 Use linear search instead of GDIIS.
     Eigenvalues ---    0.00541   0.00702   0.01214   0.02482   0.02996
     Eigenvalues ---    0.03496   0.05744   0.07238   0.10933   0.12815
     Eigenvalues ---    0.15231   0.15847   0.17296   0.17825   0.18628
     Eigenvalues ---    0.23278   0.25111   0.25423   0.38401   0.46984
     Eigenvalues ---    0.48346   0.51885   0.53476   0.53824   0.55607
     Eigenvalues ---    0.62458   0.97317
 RFO step:  Lambda=-3.31694160D-03 EMin= 5.40964675D-03
 Quartic linear search produced a step of  0.44307.
 Iteration  1 RMS(Cart)=  0.10168651 RMS(Int)=  0.00887954
 Iteration  2 RMS(Cart)=  0.01076555 RMS(Int)=  0.00521934
 Iteration  3 RMS(Cart)=  0.00009664 RMS(Int)=  0.00521839
 Iteration  4 RMS(Cart)=  0.00000100 RMS(Int)=  0.00521839
 Iteration  5 RMS(Cart)=  0.00000001 RMS(Int)=  0.00521839
 Variable       Old X    -DE/DX   Delta X   Delta X   Delta X     New X
                                 (Linear)    (Quad)   (Total)
    R1        3.22507  -0.00747   0.00736  -0.01783  -0.01047   3.21460
    R2        3.33728  -0.00432   0.00819  -0.01205  -0.00386   3.33342
    R3        3.07773  -0.00523  -0.00859  -0.00906  -0.01766   3.06007
    R4        2.96802  -0.01084   0.00402  -0.01647  -0.01245   2.95557
    R5        2.87333  -0.00312   0.00430  -0.00913  -0.00482   2.86850
    R6        1.89114   0.00280   0.00627   0.01064   0.01691   1.90805
    R7        3.04188  -0.00005  -0.05824  -0.01129  -0.05859   2.98329
    R8        4.19939  -0.00364   0.09341  -0.02852   0.05189   4.25128
    R9        1.85952  -0.00202  -0.00229  -0.00488  -0.00718   1.85235
   R10        1.87455  -0.01493  -0.00356  -0.03444  -0.02576   1.84879
   R11        1.83583  -0.00120   0.00042  -0.00214  -0.00172   1.83411
    A1        1.61716  -0.00033  -0.00104  -0.00009  -0.00113   1.61604
    A2        1.76508   0.00078   0.00672   0.00459   0.01128   1.77637
    A3        2.01128   0.00099   0.00683   0.00601   0.01283   2.02412
    A4        1.84019   0.00036  -0.00173  -0.00071  -0.00259   1.83760
    A5        2.05162  -0.00029  -0.00473  -0.00437  -0.00927   2.04235
    A6        2.10027  -0.00116  -0.00370  -0.00346  -0.00734   2.09293
    A7        1.84713  -0.00462  -0.01300  -0.02153  -0.03453   1.81260
    A8        2.27018  -0.01294  -0.02588  -0.09733  -0.12321   2.14697
    A9        2.81047   0.00583   0.04740   0.04558   0.08513   2.89560
   A10        2.48894   0.00716   0.03217   0.03319   0.07710   2.56604
   A11        1.74559  -0.00302   0.00896  -0.02232  -0.01336   1.73223
   A12        2.08192  -0.00213  -0.01080   0.00955  -0.01350   2.06842
   A13        1.90998   0.00190  -0.00700   0.02971   0.01217   1.92215
    D1       -3.11571   0.00009  -0.00364   0.00458   0.00093  -3.11478
    D2       -1.32994   0.00085   0.00288   0.00927   0.01208  -1.31786
    D3        1.06656  -0.00077  -0.00938  -0.00090  -0.01020   1.05637
    D4       -2.45173  -0.00003  -0.01429   0.00464  -0.00967  -2.46140
    D5        2.15714   0.00001  -0.01483   0.00353  -0.01123   2.14591
    D6       -0.21391   0.00119  -0.00165   0.01447   0.01277  -0.20113
    D7       -2.09990   0.00061  -0.04450   0.12918   0.08469  -2.01521
    D8       -1.24267   0.00248  -0.01809   0.00391  -0.01112  -1.25380
    D9       -0.64837  -0.00184  -0.08080  -0.00113  -0.08498  -0.73335
   D10       -2.95400  -0.00071  -0.03943   0.01116  -0.02773  -2.98172
   D11        2.40405   0.00536   0.06889   0.05357   0.12838   2.53243
         Item               Value     Threshold  Converged?
 Maximum Force            0.014928     0.000450     NO 
 RMS     Force            0.004826     0.000300     NO 
 Maximum Displacement     0.226843     0.001800     NO 
 RMS     Displacement     0.107209     0.001200     NO 
 Predicted change in Energy=-2.491246D-03
 GradGradGradGradGradGradGradGradGradGradGradGradGradGradGradGradGradGrad

                          Input orientation:                          
 ---------------------------------------------------------------------
 Center     Atomic      Atomic             Coordinates (Angstroms)
 Number     Number       Type             X           Y           Z
 ---------------------------------------------------------------------
      1         15           0       -0.865321    0.884277   -0.021966
      2          9           0        0.108361   -0.258938   -0.821165
      3          8           0       -2.354570    0.068179   -0.499157
      4          8           0       -0.746333    2.165104   -1.005592
      5          1           0       -0.676674    3.113894   -0.667315
      6          8           0       -0.606838    1.051685    1.511433
      7          8           0       -3.450672    0.943796    0.080513
      8          1           0       -3.833498    0.311499    0.724311
      9          8           0       -0.940243    4.541804   -0.047749
     10          1           0       -1.402342    4.649626    0.807808
     11          1           0       -0.255822    5.222934   -0.145900
 ---------------------------------------------------------------------
                    Distance matrix (angstroms):
                    1          2          3          4          5
     1  P    0.000000
     2  F    1.701092   0.000000
     3  O    1.763970   2.505340   0.000000
     4  O    1.619319   2.576916   2.690724   0.000000
     5  H    2.328789   3.466403   3.481378   1.009697   0.000000
     6  O    1.564018   2.769523   2.839775   2.755826   3.000755
     7  O    2.588066   3.863459   1.517946   3.159853   3.600506
     8  H    3.113693   4.272253   1.934762   3.994872   4.444725
     9  O    3.658385   4.974421   4.713534   2.569780   1.578688
    10  H    3.892913   5.387929   4.858452   3.145095   2.249679
    11  H    4.383012   5.535299   5.576830   3.214031   2.212925
                    6          7          8          9         10
     6  O    0.000000
     7  O    3.185367   0.000000
     8  H    3.402760   0.980219   0.000000
     9  O    3.837074   4.389119   5.182903   0.000000
    10  H    3.751412   4.296254   4.973615   0.978335   0.000000
    11  H    4.502142   5.345031   6.138341   0.970569   1.597732
                   11
    11  H    0.000000
 Stoichiometry    FH4O5P
 Framework group  C1[X(FH4O5P)]
 Deg. of freedom    27
 Full point group                 C1      NOp   1
 Largest Abelian subgroup         C1      NOp   1
 Largest concise Abelian subgroup C1      NOp   1
                         Standard orientation:                         
 ---------------------------------------------------------------------
 Center     Atomic      Atomic             Coordinates (Angstroms)
 Number     Number       Type             X           Y           Z
 ---------------------------------------------------------------------
      1         15           0        0.439182   -0.410211   -0.156247
      2          9           0        1.447719   -1.649944    0.426530
      3          8           0        1.495200    0.854500    0.473772
      4          8           0       -0.804676   -0.482330    0.878070
      5          1           0       -1.765373   -0.359814    0.592522
      6          8           0        0.173135   -0.411270   -1.697471
      7          8           0        0.778510    2.141808    0.108595
      8          1           0        1.436712    2.517723   -0.512926
      9          8           0       -3.158266    0.201151    0.105261
     10          1           0       -3.226630    0.795573   -0.668772
     11          1           0       -3.933143   -0.381700    0.148304
 ---------------------------------------------------------------------
 Rotational constants (GHZ):      2.2595516      1.4032467      1.1267871
 Standard basis: 6-311G (5D, 7F)
 There are   111 symmetry adapted cartesian basis functions of A   symmetry.
 There are   111 symmetry adapted basis functions of A   symmetry.
   111 basis functions,   216 primitive gaussians,   111 cartesian basis functions
    34 alpha electrons       34 beta electrons
       nuclear repulsion energy       430.6383206178 Hartrees.



 Warning!  P  atom    1 may be hypervalent but has no d functions.



 NAtoms=   11 NActive=   11 NUniq=   11 SFac= 1.00D+00 NAtFMM=   60 NAOKFM=F Big=F
 Integral buffers will be    131072 words long.
 Raffenetti 2 integral format.
 Two-electron integral symmetry is turned on.
 One-electron integrals computed using PRISM.
 NBasis=   111 RedAO= T EigKep=  1.41D-02  NBF=   111
 NBsUse=   111 1.00D-06 EigRej= -1.00D+00 NBFU=   111
 Initial guess from the checkpoint file:  "H2FPO4-h2o.chk"
 B after Tr=     0.000000    0.000000    0.000000
         Rot=    0.999847   -0.010545   -0.013912   -0.001422 Ang=  -2.01 deg.
[...]
 8146962,-1.0450528268\O,0,-0.8818179598,1.8493086847,1.3744870693\O,0,
 -3.5200319789,0.73484451,-0.0808564399\H,0,-3.886084988,0.1993821811,0
 .6568422149\O,0,-0.6926848138,4.2701773938,0.0510807392\H,0,-0.7089433
 832,3.8398078974,0.9281045435\H,0,-0.6056578324,5.2294826737,0.0731785
 808\\Version=AM64L-G09RevD.01\State=1-A\HF=-819.873899\RMSD=4.948e-09\
 Dipole=-0.5157421,1.2299269,0.5014117\Quadrupole=-1.0900561,7.1399666,
 -6.0499105,4.7751005,-2.9631469,-0.7944796\PG=C01 [X(F1H4O5P1)]\\@


 AND THIS OUR LIFE, EXEMPT FROM PUBLIC HAUNT,
 FINDS TONGUES IN TREES, BOOKS IN THE RUNNING BROOKS,
 SERMONS IN STONES, AND GOOD IN EVERYTHING.
 I WOULD NOT CHANGE IT. -- W. SHAKESPEARE
 AS YOU LIKE IT, ACT II, SCENE 1.
 Job cpu time:       0 days  0 hours 12 minutes  6.8 seconds.
 File lengths (MBytes):  RWF=     11 Int=      0 D2E=      0 Chk=      5 Scr=      1
 Normal termination of Gaussian 09 at Fri Jun 23 04:23:29 2017.
 Initial command:
 /usr/local/gaussian/gaussian09.d1/g09/l1.exe "/scratch/sarariop/H2FPO4-h2o.com/Gau-3830.inp" -scrdir="/scratch/sarariop/H2FPO4-h2o.com/"
 Default is to use a total of  10 processors:
                               10 via shared-memory
                                1 via Linda
 Entering Link 1 = /usr/local/gaussian/gaussian09.d1/g09/l1.exe PID=      9019.
  
 Copyright (c) 1988,1990,1992,1993,1995,1998,2003,2009,2013,
            Gaussian, Inc.  All Rights Reserved.
  
 This is part of the Gaussian(R) 09 program.  It is based on
 the Gaussian(R) 03 system (copyright 2003, Gaussian, Inc.),
 the Gaussian(R) 98 system (copyright 1998, Gaussian, Inc.),
 the Gaussian(R) 94 system (copyright 1995, Gaussian, Inc.),
 the Gaussian 92(TM) system (copyright 1992, Gaussian, Inc.),
 the Gaussian 90(TM) system (copyright 1990, Gaussian, Inc.),
 the Gaussian 88(TM) system (copyright 1988, Gaussian, Inc.),
 the Gaussian 86(TM) system (copyright 1986, Carnegie Mellon
 University), and the Gaussian 82(TM) system (copyright 1983,
 Carnegie Mellon University). Gaussian is a federally registered
 trademark of Gaussian, Inc.
  
 This software contains proprietary and confidential information,
 including trade secrets, belonging to Gaussian, Inc.
  
 This software is provided under written license and may be
 used, copied, transmitted, or stored only in accord with that
 written license.
  
 The following legend is applicable only to US Government
 contracts under FAR:
  
                    RESTRICTED RIGHTS LEGEND
  
 Use, reproduction and disclosure by the US Government is
 subject to restrictions as set forth in subparagraphs (a)
 and (c) of the Commercial Computer Software - Restricted
 Rights clause in FAR 52.227-19.
  
 Gaussian, Inc.
 340 Quinnipiac St., Bldg. 40, Wallingford CT 06492
  
  
 ---------------------------------------------------------------
 Warning -- This program may not be used in any manner that
 competes with the business of Gaussian, Inc. or will provide
 assistance to any competitor of Gaussian, Inc.  The licensee
 of this program is prohibited from giving any competitor of
 Gaussian, Inc. access to this program.  By using this program,
 the user acknowledges that Gaussian, Inc. is engaged in the
 business of creating and licensing software in the field of
 computational chemistry and represents and warrants to the
 licensee that it is not a competitor of Gaussian, Inc. and that
 it will not use this program in any manner prohibited above.
 ---------------------------------------------------------------
  

 Cite this work as:
 Gaussian 09, Revision D.01,
 M. J. Frisch, G. W. Trucks, H. B. Schlegel, G. E. Scuseria, 
 M. A. Robb, J. R. Cheeseman, G. Scalmani, V. Barone, B. Mennucci, 
 G. A. Petersson, H. Nakatsuji, M. Caricato, X. Li, H. P. Hratchian, 
 A. F. Izmaylov, J. Bloino, G. Zheng, J. L. Sonnenberg, M. Hada, 
 M. Ehara, K. Toyota, R. Fukuda, J. Hasegawa, M. Ishida, T. Nakajima, 
 Y. Honda, O. Kitao, H. Nakai, T. Vreven, J. A. Montgomery, Jr., 
 J. E. Peralta, F. Ogliaro, M. Bearpark, J. J. Heyd, E. Brothers, 
 K. N. Kudin, V. N. Staroverov, T. Keith, R. Kobayashi, J. Normand, 
 K. Raghavachari, A. Rendell, J. C. Burant, S. S. Iyengar, J. Tomasi, 
 M. Cossi, N. Rega, J. M. Millam, M. Klene, J. E. Knox, J. B. Cross, 
 V. Bakken, C. Adamo, J. Jaramillo, R. Gomperts, R. E. Stratmann, 
 O. Yazyev, A. J. Austin, R. Cammi, C. Pomelli, J. W. Ochterski, 
 R. L. Martin, K. Morokuma, V. G. Zakrzewski, G. A. Voth, 
 P. Salvador, J. J. Dannenberg, S. Dapprich, A. D. Daniels, 
 O. Farkas, J. B. Foresman, J. V. Ortiz, J. Cioslowski, 
 and D. J. Fox, Gaussian, Inc., Wallingford CT, 2013.
 
 ******************************************
 Gaussian 09:  AM64L-G09RevD.01 24-Apr-2013
                23-Jun-2017 
 ******************************************
 %chk=H2FPO4-h2o.chk
 Default route:  MaxDisk=70GB
 -------------------------------------------------
 # B3LYP/6-311G** geom=check guess=read output=wfx
 -------------------------------------------------
 1/29=2,38=1/1;
 2/12=2,40=1/2;
 3/5=4,6=6,7=101,11=2,14=-4,16=1,25=1,30=1,74=-5,116=-2/1,2,3;
 4/5=1/1;
 5/5=2,38=6/2;
 6/7=2,8=2,9=2,10=2,28=1/1;
 99/5=1,6=200,9=1/99;
 -------------------
 Title Card Required
 -------------------
 Structure from the checkpoint file:  "H2FPO4-h2o.chk"
 Charge =  0 Multiplicity = 1
 Redundant internal coordinates found in file.
 P,0,-0.9601389465,1.1726282519,-0.0360962212
 F,0,0.2696959134,0.0657079628,-0.3688873109
 O,0,-2.2163230987,-0.0092386266,-0.3023778796
 O,0,-0.963506498,2.1836123691,-1.3352030793
 H,0,-0.8584569743,3.158146962,-1.0450528268
 O,0,-0.8818179598,1.8493086847,1.3744870693
 O,0,-3.5200319789,0.73484451,-0.0808564399
 H,0,-3.886084988,0.1993821811,0.6568422149
 O,0,-0.6926848138,4.2701773938,0.0510807392
 H,0,-0.7089433832,3.8398078974,0.9281045435
 H,0,-0.6056578324,5.2294826737,0.0731785808
 Recover connectivity data from disk.
                          Input orientation:                          
 ---------------------------------------------------------------------
 Center     Atomic      Atomic             Coordinates (Angstroms)
 Number     Number       Type             X           Y           Z
 ---------------------------------------------------------------------
      1         15           0       -0.960139    1.172628   -0.036096
      2          9           0        0.269696    0.065708   -0.368887
      3          8           0       -2.216323   -0.009239   -0.302378
      4          8           0       -0.963506    2.183612   -1.335203
      5          1           0       -0.858457    3.158147   -1.045053
      6          8           0       -0.881818    1.849309    1.374487
      7          8           0       -3.520032    0.734845   -0.080856
      8          1           0       -3.886085    0.199382    0.656842
      9          8           0       -0.692685    4.270177    0.051081
     10          1           0       -0.708943    3.839808    0.928105
     11          1           0       -0.605658    5.229483    0.073179
 ---------------------------------------------------------------------
                    Distance matrix (angstroms):
                    1          2          3          4          5
     1  P    0.000000
     2  F    1.687755   0.000000
     3  O    1.745197   2.488038   0.000000
     4  O    1.646141   2.634402   2.728529   0.000000
     5  H    2.229488   3.360522   3.525294   1.022223   0.000000
     6  O    1.566453   2.747102   2.836720   2.731456   2.750959
     7  O    2.597443   3.859112   1.517362   3.195017   3.726399
     8  H    3.160464   4.282582   1.936938   4.055475   4.562594
     9  O    3.110296   4.333603   4.556293   2.519699   1.570223
    10  H    2.847214   4.108984   4.312939   2.816087   2.092932
    11  H    4.073778   5.256067   5.493586   3.374747   2.367442
                    6          7          8          9         10
     6  O    0.000000
     7  O    3.212511   0.000000
     8  H    3.501841   0.982300   0.000000
     9  O    2.765462   4.528783   5.209235   0.000000
    10  H    2.047249   4.308250   4.839474   0.977063   0.000000
    11  H    3.632526   5.359018   6.033554   0.963498   1.634858
                   11
    11  H    0.000000
 Stoichiometry    FH4O5P
 Framework group  C1[X(FH4O5P)]
 Deg. of freedom    27
 Full point group                 C1      NOp   1
 Largest Abelian subgroup         C1      NOp   1
 Largest concise Abelian subgroup C1      NOp   1
                         Standard orientation:                         
 ---------------------------------------------------------------------
 Center     Atomic      Atomic             Coordinates (Angstroms)
 Number     Number       Type             X           Y           Z
 ---------------------------------------------------------------------
      1         15           0        0.197978   -0.382338   -0.098538
      2          9           0        0.738308   -1.975790    0.033633
      3          8           0        1.793788    0.273491    0.164124
      4          8           0       -0.663497   -0.126480    1.280656
      5          1           0       -1.612113    0.190879    1.070056
      6          8           0       -0.521695   -0.033885   -1.445545
      7          8           0        1.620646    1.780188    0.116422
      8          1           0        2.220999    1.986200   -0.633278
      9          8           0       -2.750082    0.595233    0.066501
     10          1           0       -2.392081    0.538121   -0.840817
     11          1           0       -3.664524    0.893612    0.122136
 ---------------------------------------------------------------------
 Rotational constants (GHZ):      2.4733445      1.5456665      1.2466077
 Standard basis: 6-311G(d,p) (5D, 7F)
 There are   165 symmetry adapted cartesian basis functions of A   symmetry.
 There are   158 symmetry adapted basis functions of A   symmetry.
   158 basis functions,   270 primitive gaussians,   165 cartesian basis functions
    34 alpha electrons       34 beta electrons
       nuclear repulsion energy       440.8464709956 Hartrees.
 NAtoms=   11 NActive=   11 NUniq=   11 SFac= 1.00D+00 NAtFMM=   60 NAOKFM=F Big=F
 Integral buffers will be    131072 words long.
 Raffenetti 2 integral format.
 Two-electron integral symmetry is turned on.
 One-electron integrals computed using PRISM.
 NBasis=   158 RedAO= T EigKep=  1.24D-02  NBF=   158
 NBsUse=   158 1.00D-06 EigRej= -1.00D+00 NBFU=   158
 Initial guess from the checkpoint file:  "H2FPO4-h2o.chk"
 B after Tr=     0.000000    0.000000    0.000000
         Rot=    1.000000    0.000000    0.000000    0.000000 Ang=   0.00 deg.
 Keep R1 ints in memory in canonical form, NReq=81285809.
 Requested convergence on RMS density matrix=1.00D-08 within 128 cycles.
 Requested convergence on MAX density matrix=1.00D-06.
 Requested convergence on             energy=1.00D-06.
 No special actions if energy rises.
 SCF Done:  E(RB3LYP) =  -819.873899021     A.U. after    1 cycles
            NFock=  1  Conv=0.17D-08     -V/T= 2.0029

 **********************************************************************

            Population analysis using the SCF density.

 **********************************************************************

 Orbital symmetries:
       Occupied  (A) (A) (A) (A) (A) (A) (A) (A) (A) (A) (A) (A)
                 (A) (A) (A) (A) (A) (A) (A) (A) (A) (A) (A) (A)
                 (A) (A) (A) (A) (A) (A) (A) (A) (A) (A)
       Virtual   (A) (A) (A) (A) (A) (A) (A) (A) (A) (A) (A) (A)
                 (A) (A) (A) (A) (A) (A) (A) (A) (A) (A) (A) (A)
                 (A) (A) (A) (A) (A) (A) (A) (A) (A) (A) (A) (A)
                 (A) (A) (A) (A) (A) (A) (A) (A) (A) (A) (A) (A)
                 (A) (A) (A) (A) (A) (A) (A) (A) (A) (A) (A) (A)
                 (A) (A) (A) (A) (A) (A) (A) (A) (A) (A) (A) (A)
                 (A) (A) (A) (A) (A) (A) (A) (A) (A) (A) (A) (A)
                 (A) (A) (A) (A) (A) (A) (A) (A) (A) (A) (A) (A)
                 (A) (A) (A) (A) (A) (A) (A) (A) (A) (A) (A) (A)
                 (A) (A) (A) (A) (A) (A) (A) (A) (A) (A) (A) (A)
                 (A) (A) (A) (A)
 The electronic state is 1-A.
 Alpha  occ. eigenvalues --  -77.25455 -24.70081 -19.22974 -19.21518 -19.16921
 Alpha  occ. eigenvalues --  -19.15475 -19.12988  -6.72826  -4.89201  -4.89026
 Alpha  occ. eigenvalues --   -4.88863  -1.21490  -1.13014  -1.06435  -1.03885
 Alpha  occ. eigenvalues --   -0.98412  -0.93604  -0.64844  -0.58848  -0.56530
 Alpha  occ. eigenvalues --   -0.53323  -0.52258  -0.48978  -0.46434  -0.44723
 Alpha  occ. eigenvalues --   -0.44043  -0.41761  -0.39691  -0.38525  -0.36448
 Alpha  occ. eigenvalues --   -0.34976  -0.33895  -0.33062  -0.31563
 Alpha virt. eigenvalues --   -0.07413  -0.02685   0.01809   0.02914   0.04773
 Alpha virt. eigenvalues --    0.07369   0.09310   0.12330   0.16615   0.18862
 Alpha virt. eigenvalues --    0.21278   0.21915   0.31293   0.34697   0.36620
 Alpha virt. eigenvalues --    0.38909   0.43112   0.55632   0.55880   0.68032
 Alpha virt. eigenvalues --    0.70484   0.71300   0.73559   0.75848   0.78054
 Alpha virt. eigenvalues --    0.79870   0.82279   0.83473   0.84288   0.85331
 Alpha virt. eigenvalues --    0.87429   0.88222   0.89933   0.92935   0.95162
 Alpha virt. eigenvalues --    1.00924   1.04497   1.07922   1.09883   1.15791
 Alpha virt. eigenvalues --    1.17856   1.20937   1.22364   1.24434   1.29541
 Alpha virt. eigenvalues --    1.31645   1.36125   1.39493   1.41068   1.44947
 Alpha virt. eigenvalues --    1.53206   1.54761   1.57528   1.65769   1.66966
 Alpha virt. eigenvalues --    1.74571   1.82950   1.88968   1.93696   2.01920
 Alpha virt. eigenvalues --    2.20135   2.34328   2.36753   2.44425   2.46109
 Alpha virt. eigenvalues --    2.56616   2.58957   2.69656   2.78869   2.81242
 Alpha virt. eigenvalues --    2.85787   2.86102   2.92005   2.93889   2.97095
 Alpha virt. eigenvalues --    2.99212   3.02791   3.04837   3.05329   3.11522
 Alpha virt. eigenvalues --    3.13255   3.15273   3.21749   3.30729   3.38711
 Alpha virt. eigenvalues --    3.52169   3.67015   3.68419   3.70583   3.75284
 Alpha virt. eigenvalues --    3.76117   3.76805   3.80677   3.81820   4.03742
 Alpha virt. eigenvalues --    4.59176   4.68860   4.72036   4.74854   4.77075
 Alpha virt. eigenvalues --    4.78962   4.81050   4.85807   4.97281   4.99867
 Alpha virt. eigenvalues --    5.16798   5.19149   5.37458   5.44252   5.61776
 Alpha virt. eigenvalues --    6.06652   6.08588   6.11332   6.83336  13.70689
 Alpha virt. eigenvalues --   13.76684  13.86727  49.68679  49.70193  49.74662
 Alpha virt. eigenvalues --   49.80932  49.83659  66.66389 162.82214
          Condensed to atoms (all electrons):
               1          2          3          4          5          6
     1  P   12.395331   0.241701   0.240992   0.323099  -0.031158   0.471554
     2  F    0.241701   9.161896  -0.018447  -0.017478  -0.000715  -0.013672
     3  O    0.240992  -0.018447   8.115053  -0.020873  -0.000631  -0.017431
     4  O    0.323099  -0.017478  -0.020873   8.028885   0.295377  -0.025320
     5  H   -0.031158  -0.000715  -0.000631   0.295377   0.309569  -0.001531
     6  O    0.471554  -0.013672  -0.017431  -0.025320  -0.001531   8.173235
     7  O   -0.009506   0.000347   0.066013   0.000068   0.000366  -0.000477
     8  H   -0.005421  -0.000215  -0.021034  -0.000300  -0.000054   0.000981
     9  O    0.001494  -0.000022  -0.000022  -0.040427   0.085410  -0.009876
    10  H   -0.004810  -0.000134   0.000041   0.003581  -0.012692   0.031056
    11  H    0.001642   0.000005   0.000005   0.001865  -0.005678   0.000261
               7          8          9         10         11
     1  P   -0.009506  -0.005421   0.001494  -0.004810   0.001642
     2  F    0.000347  -0.000215  -0.000022  -0.000134   0.000005
     3  O    0.066013  -0.021034  -0.000022   0.000041   0.000005
     4  O    0.000068  -0.000300  -0.040427   0.003581   0.001865
     5  H    0.000366  -0.000054   0.085410  -0.012692  -0.005678
     6  O   -0.000477   0.000981  -0.009876   0.031056   0.000261
     7  O    7.895188   0.280811  -0.000010  -0.000037  -0.000003
     8  H    0.280811   0.449920  -0.000013  -0.000007   0.000001
     9  O   -0.000010  -0.000013   7.886973   0.303217   0.316037
    10  H   -0.000037  -0.000007   0.303217   0.386871  -0.017098
    11  H   -0.000003   0.000001   0.316037  -0.017098   0.415416
 Mulliken charges:
               1
     1  P    1.375082
     2  F   -0.353266
     3  O   -0.343665
     4  O   -0.548477
     5  H    0.361738
     6  O   -0.608780
     7  O   -0.232761
     8  H    0.295332
     9  O   -0.542761
    10  H    0.310011
    11  H    0.287547
 Sum of Mulliken charges =   0.00000
 Mulliken charges with hydrogens summed into heavy atoms:
               1
     1  P    1.375082
     2  F   -0.353266
     3  O   -0.343665
     4  O   -0.186739
     6  O   -0.608780
     7  O    0.062571
     9  O    0.054797
 Electronic spatial extent (au):  <R**2>=            984.2606
 Charge=              0.0000 electrons
 Dipole moment (field-independent basis, Debye):
    X=             -2.4035    Y=              2.5614    Z=             -0.8821  Tot=              3.6215
 Quadrupole moment (field-independent basis, Debye-Ang):
   XX=            -30.2657   YY=            -46.2429   ZZ=            -51.0141
   XY=              0.5664   XZ=             -3.5212   YZ=             -2.7866
 Traceless Quadrupole moment (field-independent basis, Debye-Ang):
   XX=             12.2419   YY=             -3.7354   ZZ=             -8.5065
   XY=              0.5664   XZ=             -3.5212   YZ=             -2.7866
 Octapole moment (field-independent basis, Debye-Ang**2):
  XXX=            -49.7510  YYY=             10.3697  ZZZ=              3.5933  XYY=              3.6390
  XXY=             26.2176  XXZ=             -9.2624  XZZ=              0.3694  YZZ=              1.8731
  YYZ=             -6.3015  XYZ=             -6.1264
 Hexadecapole moment (field-independent basis, Debye-Ang**3):
 XXXX=           -348.4542 YYYY=           -295.0893 ZZZZ=           -191.5682 XXXY=            -38.4409
 XXXZ=            -17.2229 YYYX=             19.7219 YYYZ=            -13.3854 ZZZX=             -4.5584
 ZZZY=             -2.4010 XXYY=           -114.3645 XXZZ=           -114.4263 YYZZ=            -76.1975
 XXYZ=            -16.4109 YYXZ=            -13.4337 ZZXY=             -2.1241
 N-N= 4.408464709956D+02 E-N=-2.827283600298D+03  KE= 8.174861135874D+02
 1\1\GINC-BLADI21\SP\RB3LYP\6-311G(d,p)\F1H4O5P1\SARARIOP\23-Jun-2017\0
 \\# B3LYP/6-311G** geom=check guess=read output=wfx\\Title Card Requir
 ed\\0,1\P,0,-0.9601389465,1.1726282519,-0.0360962212\F,0,0.2696959134,
 0.0657079628,-0.3688873109\O,0,-2.2163230987,-0.0092386266,-0.30237787
 96\O,0,-0.963506498,2.1836123691,-1.3352030793\H,0,-0.8584569743,3.158
 146962,-1.0450528268\O,0,-0.8818179598,1.8493086847,1.3744870693\O,0,-
 3.5200319789,0.73484451,-0.0808564399\H,0,-3.886084988,0.1993821811,0.
 6568422149\O,0,-0.6926848138,4.2701773938,0.0510807392\H,0,-0.70894338
 32,3.8398078974,0.9281045435\H,0,-0.6056578324,5.2294826737,0.07317858
 08\\Version=AM64L-G09RevD.01\State=1-A\HF=-819.873899\RMSD=1.747e-09\D
 ipole=-0.5157427,1.2299267,0.5014117\Quadrupole=-1.0900563,7.1399682,-
 6.0499119,4.7751021,-2.9631464,-0.7944793\PG=C01 [X(F1H4O5P1)]\\@

 Writing a WFNX file to "H2FPO4-h2o.wfx"


 CHILDREN YOU ARE VERY LITTLE,
 AND YOUR BONES ARE VERY BRITTLE;
 IF YOU WOULD GROW GREAT AND STATELY
 YOU MUST TRY TO WALK SEDATELY.
 YOU MUST STILL BE BRIGHT AND QUIET,
 AND CONTENT WITH SIMPLE DIET;
 AND REMAIN, THROUGH ALL BEWILD'RING
 INNOCENT AND HONEST CHILDREN.
     -- A CHILD'S GARDEN OF VERSE,
        ROBERT LOUIS STEVENSON
 Job cpu time:       0 days  0 hours  1 minutes 25.6 seconds.
 File lengths (MBytes):  RWF=     11 Int=      0 D2E=      0 Chk=      5 Scr=      1
 Normal termination of Gaussian 09 at Fri Jun 23 04:23:48 2017.
