 Entering Gaussian System, Link 0=g09
 Initial command:
 /usr/local/gaussian/gaussian09.d1/g09/l1.exe "/scratch/sarariop/H3PO4-h2o-A.com/Gau-19976.inp" -scrdir="/scratch/sarariop/H3PO4-h2o-A.com/"
 Default is to use a total of   8 processors:
                                8 via shared-memory
                                1 via Linda
 Entering Link 1 = /usr/local/gaussian/gaussian09.d1/g09/l1.exe PID=     19977.
  
 Copyright (c) 1988,1990,1992,1993,1995,1998,2003,2009,2013,
            Gaussian, Inc.  All Rights Reserved.
  
 This is part of the Gaussian(R) 09 program.  It is based on
 the Gaussian(R) 03 system (copyright 2003, Gaussian, Inc.),
 the Gaussian(R) 98 system (copyright 1998, Gaussian, Inc.),
 the Gaussian(R) 94 system (copyright 1995, Gaussian, Inc.),
 the Gaussian 92(TM) system (copyright 1992, Gaussian, Inc.),
 the Gaussian 90(TM) system (copyright 1990, Gaussian, Inc.),
 the Gaussian 88(TM) system (copyright 1988, Gaussian, Inc.),
 the Gaussian 86(TM) system (copyright 1986, Carnegie Mellon
 University), and the Gaussian 82(TM) system (copyright 1983,
 Carnegie Mellon University). Gaussian is a federally registered
 trademark of Gaussian, Inc.
  
 This software contains proprietary and confidential information,
 including trade secrets, belonging to Gaussian, Inc.
  
 This software is provided under written license and may be
 used, copied, transmitted, or stored only in accord with that
 written license.
  
 The following legend is applicable only to US Government
 contracts under FAR:
  
                    RESTRICTED RIGHTS LEGEND
  
 Use, reproduction and disclosure by the US Government is
 subject to restrictions as set forth in subparagraphs (a)
 and (c) of the Commercial Computer Software - Restricted
 Rights clause in FAR 52.227-19.
  
 Gaussian, Inc.
 340 Quinnipiac St., Bldg. 40, Wallingford CT 06492
  
  
 ---------------------------------------------------------------
 Warning -- This program may not be used in any manner that
 competes with the business of Gaussian, Inc. or will provide
 assistance to any competitor of Gaussian, Inc.  The licensee
 of this program is prohibited from giving any competitor of
 Gaussian, Inc. access to this program.  By using this program,
 the user acknowledges that Gaussian, Inc. is engaged in the
 business of creating and licensing software in the field of
 computational chemistry and represents and warrants to the
 licensee that it is not a competitor of Gaussian, Inc. and that
 it will not use this program in any manner prohibited above.
 ---------------------------------------------------------------
  

 Cite this work as:
 Gaussian 09, Revision D.01,
 M. J. Frisch, G. W. Trucks, H. B. Schlegel, G. E. Scuseria, 
 M. A. Robb, J. R. Cheeseman, G. Scalmani, V. Barone, B. Mennucci, 
 G. A. Petersson, H. Nakatsuji, M. Caricato, X. Li, H. P. Hratchian, 
 A. F. Izmaylov, J. Bloino, G. Zheng, J. L. Sonnenberg, M. Hada, 
 M. Ehara, K. Toyota, R. Fukuda, J. Hasegawa, M. Ishida, T. Nakajima, 
 Y. Honda, O. Kitao, H. Nakai, T. Vreven, J. A. Montgomery, Jr., 
 J. E. Peralta, F. Ogliaro, M. Bearpark, J. J. Heyd, E. Brothers, 
 K. N. Kudin, V. N. Staroverov, T. Keith, R. Kobayashi, J. Normand, 
 K. Raghavachari, A. Rendell, J. C. Burant, S. S. Iyengar, J. Tomasi, 
 M. Cossi, N. Rega, J. M. Millam, M. Klene, J. E. Knox, J. B. Cross, 
 V. Bakken, C. Adamo, J. Jaramillo, R. Gomperts, R. E. Stratmann, 
 O. Yazyev, A. J. Austin, R. Cammi, C. Pomelli, J. W. Ochterski, 
 R. L. Martin, K. Morokuma, V. G. Zakrzewski, G. A. Voth, 
 P. Salvador, J. J. Dannenberg, S. Dapprich, A. D. Daniels, 
 O. Farkas, J. B. Foresman, J. V. Ortiz, J. Cioslowski, 
 and D. J. Fox, Gaussian, Inc., Wallingford CT, 2013.
 
 ******************************************
 Gaussian 09:  AM64L-G09RevD.01 24-Apr-2013
                21-Jun-2017 
 ******************************************
 %chk=H3PO4-h2o-A.chk
 Default route:  MaxDisk=56GB
 -----------------------------------------
 # opt freq b3lyp/6-311g geom=connectivity
 -----------------------------------------
 1/14=-1,18=20,19=15,26=3,38=1,57=2/1,3;
 2/9=110,12=2,17=6,18=5,40=1/2;
 3/5=4,6=6,11=2,16=1,25=1,30=1,71=1,74=-5/1,2,3;
 4//1;
 5/5=2,38=5/2;
 6/7=2,8=2,9=2,10=2,28=1/1;
 7//1,2,3,16;
 1/14=-1,18=20,19=15,26=3/3(2);
 2/9=110/2;
 99//99;
 2/9=110/2;
 3/5=4,6=6,11=2,16=1,25=1,30=1,71=1,74=-5/1,2,3;
 4/5=5,16=3,69=1/1;
 5/5=2,38=5/2;
 7//1,2,3,16;
 1/14=-1,18=20,19=15,26=3/3(-5);
 2/9=110/2;
 6/7=2,8=2,9=2,10=2,19=2,28=1/1;
 99/9=1/99;
 -------------------
 Title Card Required
 -------------------
 Symbolic Z-matrix:
 Charge = -1 Multiplicity = 1
 P                    -2.63668   0.2381    0. 
 O                    -1.85613  -0.17617   1.19618 
 O                    -3.37107   1.65921   0.09175 
 H                    -3.91378   1.74856   0.8834 
 O                    -3.87029  -0.73191  -0.35031 
 H                    -3.64947  -1.66064  -0.21509 
 O                    -1.79023   0.37211  -1.32841 
 O                     0.57055   0.19092  -0.09861 
 H                     0.01405  -0.04123   0.66926 
 H                     1.05929   0.97797   0.16099 
 
 Add virtual bond connecting atoms H9         and O2         Dist= 3.68D+00.

 GradGradGradGradGradGradGradGradGradGradGradGradGradGradGradGradGradGrad
 Berny optimization.
 Initialization pass.
                           ----------------------------
                           !    Initial Parameters    !
                           ! (Angstroms and Degrees)  !
 --------------------------                            --------------------------
 ! Name  Definition              Value          Derivative Info.                !
 --------------------------------------------------------------------------------
 ! R1    R(1,2)                  1.4872         estimate D2E/DX2                !
 ! R2    R(1,3)                  1.6023         estimate D2E/DX2                !
 ! R3    R(1,5)                  1.6079         estimate D2E/DX2                !
 ! R4    R(1,7)                  1.5809         estimate D2E/DX2                !
 ! R5    R(2,9)                  1.9477         estimate D2E/DX2                !
 ! R6    R(3,4)                  0.964          estimate D2E/DX2                !
 ! R7    R(5,6)                  0.9642         estimate D2E/DX2                !
 ! R8    R(8,9)                  0.9763         estimate D2E/DX2                !
 ! R9    R(8,10)                 0.9621         estimate D2E/DX2                !
 ! A1    A(2,1,3)              116.2035         estimate D2E/DX2                !
 ! A2    A(2,1,5)              114.1961         estimate D2E/DX2                !
 ! A3    A(2,1,7)              114.7378         estimate D2E/DX2                !
 ! A4    A(3,1,5)              101.2969         estimate D2E/DX2                !
 ! A5    A(3,1,7)              102.6118         estimate D2E/DX2                !
 ! A6    A(5,1,7)              106.1922         estimate D2E/DX2                !
 ! A7    A(1,2,9)              105.4901         estimate D2E/DX2                !
 ! A8    A(1,3,4)              112.7855         estimate D2E/DX2                !
 ! A9    A(1,5,6)              112.0142         estimate D2E/DX2                !
 ! A10   A(9,8,10)             105.7736         estimate D2E/DX2                !
 ! A11   A(2,9,8)              140.9471         estimate D2E/DX2                !
 ! D1    D(3,1,2,9)           -108.6304         estimate D2E/DX2                !
 ! D2    D(5,1,2,9)            133.9508         estimate D2E/DX2                !
 ! D3    D(7,1,2,9)             11.019          estimate D2E/DX2                !
 ! D4    D(2,1,3,4)            -51.9155         estimate D2E/DX2                !
 ! D5    D(5,1,3,4)             72.4272         estimate D2E/DX2                !
 ! D6    D(7,1,3,4)           -177.9335         estimate D2E/DX2                !
 ! D7    D(2,1,5,6)            -39.2388         estimate D2E/DX2                !
 ! D8    D(3,1,5,6)           -164.9297         estimate D2E/DX2                !
 ! D9    D(7,1,5,6)             88.2206         estimate D2E/DX2                !
 ! D10   D(1,2,9,8)             -0.9783         estimate D2E/DX2                !
 ! D11   D(10,8,9,2)           115.4279         estimate D2E/DX2                !
 --------------------------------------------------------------------------------
 Trust Radius=3.00D-01 FncErr=1.00D-07 GrdErr=1.00D-06
 Number of steps in this run=     41 maximum allowed number of steps=    100.
 GradGradGradGradGradGradGradGradGradGradGradGradGradGradGradGradGradGrad

                          Input orientation:                          
 ---------------------------------------------------------------------
 Center     Atomic      Atomic             Coordinates (Angstroms)
 Number     Number       Type             X           Y           Z
 ---------------------------------------------------------------------
      1         15           0       -2.636684    0.238095    0.000000
      2          8           0       -1.856134   -0.176168    1.196178
      3          8           0       -3.371071    1.659209    0.091753
      4          1           0       -3.913779    1.748559    0.883399
      5          8           0       -3.870291   -0.731911   -0.350311
      6          1           0       -3.649473   -1.660643   -0.215088
      7          8           0       -1.790227    0.372111   -1.328406
      8          8           0        0.570554    0.190916   -0.098614
      9          1           0        0.014050   -0.041234    0.669261
     10          1           0        1.059291    0.977971    0.160991
 ---------------------------------------------------------------------
                    Distance matrix (angstroms):
                    1          2          3          4          5
     1  P    0.000000
     2  O    1.487183   0.000000
     3  O    1.602282   2.623623   0.000000
     4  H    2.166303   2.834838   0.963960   0.000000
     5  O    1.607923   2.599482   2.482357   2.770679   0.000000
     6  H    2.162686   2.722389   3.345606   3.591544   0.964152
     7  O    1.580858   2.584275   2.484460   3.360977   2.549941
     8  O    3.209101   2.774897   4.210526   4.847664   4.542694
     9  H    2.748150   1.947675   3.831979   4.321696   4.074882
    10  H    3.772740   3.302022   4.482966   5.084005   5.242700
                    6          7          8          9         10
     6  H    0.000000
     7  O    2.971256   0.000000
     8  O    4.609823   2.668053   0.000000
     9  H    4.101946   2.723407   0.976331   0.000000
    10  H    5.410746   3.271868   0.962140   1.545848   0.000000
 Stoichiometry    H4O5P(1-)
 Framework group  C1[X(H4O5P)]
 Deg. of freedom    24
 Full point group                 C1      NOp   1
 Largest Abelian subgroup         C1      NOp   1
 Largest concise Abelian subgroup C1      NOp   1
                         Standard orientation:                         
 ---------------------------------------------------------------------
 Center     Atomic      Atomic             Coordinates (Angstroms)
 Number     Number       Type             X           Y           Z
 ---------------------------------------------------------------------
      1         15           0        0.456685   -0.017180   -0.048617
      2          8           0       -0.342957   -0.389367   -1.246016
      3          8           0        1.192160    1.405285   -0.103195
      4          1           0        1.722768    1.520897   -0.899629
      5          8           0        1.693773   -1.000174    0.249295
      6          1           0        1.469206   -1.923463    0.085907
      7          8           0       -0.368958    0.072519    1.296515
      8          8           0       -2.748734   -0.063541    0.097906
      9          1           0       -2.204551   -0.270071   -0.685951
     10          1           0       -3.239977    0.732548   -0.127119
 ---------------------------------------------------------------------
 Rotational constants (GHZ):      4.5438669      1.8422449      1.8173493
 Standard basis: 6-311G (5D, 7F)
 There are    98 symmetry adapted cartesian basis functions of A   symmetry.
 There are    98 symmetry adapted basis functions of A   symmetry.
    98 basis functions,   190 primitive gaussians,    98 cartesian basis functions
    30 alpha electrons       30 beta electrons
       nuclear repulsion energy       353.0818988137 Hartrees.



 Warning!  P  atom    1 may be hypervalent but has no d functions.



 NAtoms=   10 NActive=   10 NUniq=   10 SFac= 1.00D+00 NAtFMM=   60 NAOKFM=F Big=F
 Integral buffers will be    131072 words long.
 Raffenetti 2 integral format.
 Two-electron integral symmetry is turned on.
 One-electron integrals computed using PRISM.
 NBasis=    98 RedAO= T EigKep=  1.08D-02  NBF=    98
 NBsUse=    98 1.00D-06 EigRej= -1.00D+00 NBFU=    98
 ExpMin= 6.85D-02 ExpMax= 7.75D+04 ExpMxC= 2.65D+03 IAcc=2 IRadAn=         4 AccDes= 0.00D+00
 Harris functional with IExCor=  402 and IRadAn=       4 diagonalized for initial guess.
 HarFok:  IExCor=  402 AccDes= 0.00D+00 IRadAn=         4 IDoV= 1 UseB2=F ITyADJ=14
 ICtDFT=  3500011 ScaDFX=  1.000000  1.000000  1.000000  1.000000
 FoFCou: FMM=F IPFlag=           0 FMFlag=      100000 FMFlg1=           0
         NFxFlg=           0 DoJE=T BraDBF=F KetDBF=T FulRan=T
         wScrn=  0.000000 ICntrl=     500 IOpCl=  0 I1Cent=   200000004 NGrid=           0
         NMat0=    1 NMatS0=      1 NMatT0=    0 NMatD0=    1 NMtDS0=    0 NMtDT0=    0
 Petite list used in FoFCou.
 Keep R1 ints in memory in canonical form, NReq=12736549.
 Requested convergence on RMS density matrix=1.00D-08 within 128 cycles.
 Requested convergence on MAX density matrix=1.00D-06.
 Requested convergence on             energy=1.00D-06.
 No special actions if energy rises.
 Integral accuracy reduced to 1.0D-05 until final iterations.
 EnCoef did     4 forward-backward iterations
 EnCoef did     2 forward-backward iterations
 Initial convergence to 1.0D-05 achieved.  Increase integral accuracy.
 SCF Done:  E(RB3LYP) =  -719.880367482     A.U. after   18 cycles
            NFock= 18  Conv=0.74D-08     -V/T= 2.0003

 **********************************************************************

            Population analysis using the SCF density.

 **********************************************************************

 Orbital symmetries:
       Occupied  (A) (A) (A) (A) (A) (A) (A) (A) (A) (A) (A) (A)
                 (A) (A) (A) (A) (A) (A) (A) (A) (A) (A) (A) (A)
                 (A) (A) (A) (A) (A) (A)
       Virtual   (A) (A) (A) (A) (A) (A) (A) (A) (A) (A) (A) (A)
                 (A) (A) (A) (A) (A) (A) (A) (A) (A) (A) (A) (A)
                 (A) (A) (A) (A) (A) (A) (A) (A) (A) (A) (A) (A)
                 (A) (A) (A) (A) (A) (A) (A) (A) (A) (A) (A) (A)
                 (A) (A) (A) (A) (A) (A) (A) (A) (A) (A) (A) (A)
                 (A) (A) (A) (A) (A) (A) (A) (A)
 The electronic state is 1-A.
 Alpha  occ. eigenvalues --  -77.02503 -18.98111 -18.97916 -18.91369 -18.89758
 Alpha  occ. eigenvalues --  -18.83359  -6.52285  -4.68390  -4.68344  -4.68108
 Alpha  occ. eigenvalues --   -0.94279  -0.88487  -0.82839  -0.81433  -0.71412
 Alpha  occ. eigenvalues --   -0.46821  -0.39447  -0.34425  -0.28954  -0.26226
 Alpha  occ. eigenvalues --   -0.22368  -0.20454  -0.18770  -0.17553  -0.14736
 Alpha  occ. eigenvalues --   -0.12581  -0.11914  -0.09473  -0.04441  -0.02989
 Alpha virt. eigenvalues --    0.15445   0.18964   0.19922   0.28128   0.32275
 Alpha virt. eigenvalues --    0.32634   0.33351   0.34348   0.38882   0.42939
 Alpha virt. eigenvalues --    0.46067   0.53097   0.55096   0.56352   0.59173
 Alpha virt. eigenvalues --    0.59958   0.86705   0.87617   0.93656   0.94930
 Alpha virt. eigenvalues --    0.98154   1.00848   1.01868   1.05828   1.10450
 Alpha virt. eigenvalues --    1.12649   1.13764   1.20193   1.23106   1.24325
 Alpha virt. eigenvalues --    1.28190   1.37935   1.43242   1.44860   1.50485
 Alpha virt. eigenvalues --    1.62799   1.67753   1.69233   1.83230   2.29494
 Alpha virt. eigenvalues --    2.32548   2.34221   2.47598   4.89943   4.92127
 Alpha virt. eigenvalues --    4.93036   4.94653   4.98129   5.01725   5.03174
 Alpha virt. eigenvalues --    5.05187   5.08505   5.10259   5.14217   5.16532
 Alpha virt. eigenvalues --    5.18053   5.19862   5.21528   6.88743  13.91533
 Alpha virt. eigenvalues --   13.94666  14.02311  49.89244  49.92215  49.93906
 Alpha virt. eigenvalues --   50.00178  50.09748 162.96373
          Condensed to atoms (all electrons):
               1          2          3          4          5          6
     1  P   13.033177   0.209949  -0.024517  -0.004821  -0.024123  -0.022412
     2  O    0.209949   8.815646  -0.066078  -0.000655  -0.068847   0.003550
     3  O   -0.024517  -0.066078   8.772977   0.197412  -0.059124  -0.001916
     4  H   -0.004821  -0.000655   0.197412   0.445977  -0.002366  -0.000178
     5  O   -0.024123  -0.068847  -0.059124  -0.002366   8.774615   0.237737
     6  H   -0.022412   0.003550  -0.001916  -0.000178   0.237737   0.392880
     7  O    0.439442  -0.078748  -0.074039  -0.000078  -0.078383  -0.000540
     8  O    0.020434  -0.016764  -0.000168  -0.000015  -0.000053   0.000115
     9  H   -0.029850   0.043691  -0.000424  -0.000202  -0.000200  -0.000216
    10  H    0.002667  -0.000035   0.000012  -0.000036   0.000036  -0.000009
               7          8          9         10
     1  P    0.439442   0.020434  -0.029850   0.002667
     2  O   -0.078748  -0.016764   0.043691  -0.000035
     3  O   -0.074039  -0.000168  -0.000424   0.000012
     4  H   -0.000078  -0.000015  -0.000202  -0.000036
     5  O   -0.078383  -0.000053  -0.000200   0.000036
     6  H   -0.000540   0.000115  -0.000216  -0.000009
     7  O    8.564340  -0.014408  -0.002299   0.005114
     8  O   -0.014408   8.295111   0.232454   0.218576
     9  H   -0.002299   0.232454   0.403921  -0.044164
    10  H    0.005114   0.218576  -0.044164   0.510316
 Mulliken charges:
               1
     1  P    1.400054
     2  O   -0.841708
     3  O   -0.744136
     4  H    0.364961
     5  O   -0.779290
     6  H    0.390988
     7  O   -0.760401
     8  O   -0.735282
     9  H    0.397289
    10  H    0.307524
 Sum of Mulliken charges =  -1.00000
 Mulliken charges with hydrogens summed into heavy atoms:
               1
     1  P    1.400054
     2  O   -0.841708
     3  O   -0.379174
     5  O   -0.388301
     7  O   -0.760401
     8  O   -0.030469
 Electronic spatial extent (au):  <R**2>=            754.1693
 Charge=             -1.0000 electrons
 Dipole moment (field-independent basis, Debye):
    X=              2.5444    Y=             -0.0045    Z=             -4.5749  Tot=              5.2348
 Quadrupole moment (field-independent basis, Debye-Ang):
   XX=            -52.3175   YY=            -42.1427   ZZ=            -55.3994
   XY=             -5.0831   XZ=              0.3275   YZ=             -4.0109
 Traceless Quadrupole moment (field-independent basis, Debye-Ang):
   XX=             -2.3643   YY=              7.8105   ZZ=             -5.4462
   XY=             -5.0831   XZ=              0.3275   YZ=             -4.0109
 Octapole moment (field-independent basis, Debye-Ang**2):
  XXX=             -3.3796  YYY=            -15.6893  ZZZ=             -3.4795  XYY=              1.5733
  XXY=             20.7517  XXZ=            -19.9973  XZZ=              5.1733  YZZ=              5.3009
  YYZ=             -4.0711  XYZ=             -3.0725
 Hexadecapole moment (field-independent basis, Debye-Ang**3):
 XXXX=           -589.0155 YYYY=           -155.9102 ZZZZ=           -197.8335 XXXY=            -38.8501
 XXXZ=             12.8356 YYYX=            -21.7582 YYYZ=             -9.2937 ZZZX=             -2.4069
 ZZZY=             -7.9297 XXYY=           -105.9117 XXZZ=           -117.0061 YYZZ=            -56.8756
 XXYZ=             -5.7674 YYXZ=             -7.5520 ZZXY=              3.9484
 N-N= 3.530818988137D+02 E-N=-2.427105782887D+03  KE= 7.196446626009D+02
 Calling FoFJK, ICntrl=      2127 FMM=F ISym2X=0 I1Cent= 0 IOpClX= 0 NMat=1 NMatS=1 NMatT=0.
 ***** Axes restored to original set *****
 -------------------------------------------------------------------
 Center     Atomic                   Forces (Hartrees/Bohr)
 Number     Number              X              Y              Z
 -------------------------------------------------------------------
      1       15           0.081462725    0.021290093   -0.133559599
      2        8           0.037549567   -0.030888705    0.106973137
      3        8          -0.042918940    0.055749038    0.024131882
      4        1          -0.008541448    0.010317434    0.006136343
      5        8          -0.066157080   -0.048091495    0.008186478
      6        1          -0.004392812   -0.006609929   -0.003186889
      7        8          -0.008179902    0.000268927   -0.012413211
      8        8           0.023670080   -0.010566033    0.011767875
      9        1          -0.017699453   -0.003913921   -0.006265757
     10        1           0.005207263    0.012444591   -0.001770259
 -------------------------------------------------------------------
 Cartesian Forces:  Max     0.133559599 RMS     0.041991464

 GradGradGradGradGradGradGradGradGradGradGradGradGradGradGradGradGradGrad
 Berny optimization.
 FormGI is forming the generalized inverse of G from B-inverse, IUseBI=4.
 Internal  Forces:  Max     0.123783822 RMS     0.037846771
 Search for a local minimum.
 Step number   1 out of a maximum of   41
 All quantities printed in internal units (Hartrees-Bohrs-Radians)
 Mixed Optimization -- RFO/linear search
 Second derivative matrix not updated -- first step.
 ITU=  0
     Eigenvalues ---    0.00230   0.01341   0.03308   0.03383   0.04702
     Eigenvalues ---    0.04905   0.11499   0.12947   0.16000   0.16000
     Eigenvalues ---    0.16000   0.16000   0.16819   0.21788   0.23022
     Eigenvalues ---    0.25000   0.49716   0.50779   0.52104   0.54590
     Eigenvalues ---    0.54630   0.55016   0.55105   0.81083
 RFO step:  Lambda=-9.79977246D-02 EMin= 2.30000000D-03
 Linear search not attempted -- first point.
 Maximum step size (   0.300) exceeded in Quadratic search.
    -- Step size scaled by   0.639
 Iteration  1 RMS(Cart)=  0.22864110 RMS(Int)=  0.01230402
 Iteration  2 RMS(Cart)=  0.02113088 RMS(Int)=  0.00151364
 Iteration  3 RMS(Cart)=  0.00034150 RMS(Int)=  0.00150162
 Iteration  4 RMS(Cart)=  0.00000050 RMS(Int)=  0.00150162
 Variable       Old X    -DE/DX   Delta X   Delta X   Delta X     New X
                                 (Linear)    (Quad)   (Total)
    R1        2.81037   0.12378   0.00000   0.08698   0.08698   2.89735
    R2        3.02787   0.08392   0.00000   0.08847   0.08847   3.11634
    R3        3.03853   0.08604   0.00000   0.09232   0.09232   3.13086
    R4        2.98739   0.00607   0.00000   0.00598   0.00598   2.99336
    R5        3.68057   0.00959   0.00000   0.04222   0.04222   3.72279
    R6        1.82162   0.01081   0.00000   0.01071   0.01071   1.83233
    R7        1.82198   0.00491   0.00000   0.00487   0.00487   1.82685
    R8        1.84500   0.00905   0.00000   0.00934   0.00934   1.85433
    R9        1.81818   0.01234   0.00000   0.01216   0.01216   1.83034
    A1        2.02813  -0.02183   0.00000  -0.05530  -0.05881   1.96932
    A2        1.99310  -0.02767   0.00000  -0.06961  -0.07261   1.92048
    A3        2.00255   0.03550   0.00000   0.09287   0.09392   2.09647
    A4        1.76796  -0.00060   0.00000  -0.02373  -0.02830   1.73967
    A5        1.79091   0.00957   0.00000   0.03433   0.03463   1.82555
    A6        1.85340   0.00576   0.00000   0.02213   0.02297   1.87637
    A7        1.84115   0.07421   0.00000   0.18371   0.18371   2.02486
    A8        1.96848   0.01824   0.00000   0.04515   0.04515   2.01363
    A9        1.95502   0.01221   0.00000   0.03023   0.03023   1.98525
   A10        1.84610   0.00750   0.00000   0.01855   0.01855   1.86465
   A11        2.45999   0.04811   0.00000   0.08828   0.08828   2.54828
    D1       -1.89596  -0.01971   0.00000  -0.06221  -0.05969  -1.95565
    D2        2.33788   0.01952   0.00000   0.06675   0.06379   2.40167
    D3        0.19232   0.00520   0.00000   0.01723   0.01766   0.20998
    D4       -0.90610   0.02907   0.00000   0.08296   0.08138  -0.82471
    D5        1.26409  -0.01874   0.00000  -0.05379  -0.05249   1.21160
    D6       -3.10553  -0.00999   0.00000  -0.02752  -0.02725  -3.13277
    D7       -0.68485  -0.02594   0.00000  -0.07682  -0.07498  -0.75983
    D8       -2.87857   0.01718   0.00000   0.04760   0.04593  -2.83264
    D9        1.53974   0.00532   0.00000   0.01250   0.01234   1.55208
   D10       -0.01707  -0.00304   0.00000  -0.01936  -0.01936  -0.03644
   D11        2.01460  -0.00693   0.00000  -0.03970  -0.03970   1.97490
         Item               Value     Threshold  Converged?
 Maximum Force            0.123784     0.000450     NO 
 RMS     Force            0.037847     0.000300     NO 
 Maximum Displacement     0.546876     0.001800     NO 
 RMS     Displacement     0.240398     0.001200     NO 
 Predicted change in Energy=-4.825602D-02
 GradGradGradGradGradGradGradGradGradGradGradGradGradGradGradGradGradGrad

                          Input orientation:                          
 ---------------------------------------------------------------------
 Center     Atomic      Atomic             Coordinates (Angstroms)
 Number     Number       Type             X           Y           Z
 ---------------------------------------------------------------------
      1         15           0       -2.696431    0.268332   -0.153044
      2          8           0       -1.797413   -0.114124    1.028581
      3          8           0       -3.521195    1.673941    0.099050
      4          1           0       -3.961057    1.748909    0.959911
      5          8           0       -3.969798   -0.785984   -0.261988
      6          1           0       -3.719594   -1.712185   -0.143189
      7          8           0       -2.079622    0.422140   -1.603909
      8          8           0        0.850428    0.151319    0.044812
      9          1           0        0.143278   -0.028697    0.700880
     10          1           0        1.307638    0.953256    0.338059
 ---------------------------------------------------------------------
                    Distance matrix (angstroms):
                    1          2          3          4          5
     1  P    0.000000
     2  O    1.533213   0.000000
     3  O    1.649098   2.651911   0.000000
     4  H    2.242779   2.856040   0.969629   0.000000
     5  O    1.656778   2.614617   2.526425   2.814036   0.000000
     6  H    2.229216   2.760729   3.400572   3.640646   0.966728
     7  O    1.584020   2.701337   2.558360   3.445764   2.614016
     8  O    3.554299   2.837132   4.629515   5.151707   4.920085
     9  H    2.980161   1.970016   4.085283   4.480240   4.291618
    10  H    4.091805   3.355214   4.888163   5.364598   5.588948
                    6          7          8          9         10
     6  H    0.000000
     7  O    3.062442   0.000000
     8  O    4.938936   3.372953   0.000000
     9  H    4.297483   3.233665   0.981271   0.000000
    10  H    5.710450   3.940413   0.968575   1.565761   0.000000
 Stoichiometry    H4O5P(1-)
 Framework group  C1[X(H4O5P)]
 Deg. of freedom    24
 Full point group                 C1      NOp   1
 Largest Abelian subgroup         C1      NOp   1
 Largest concise Abelian subgroup C1      NOp   1
                         Standard orientation:                         
 ---------------------------------------------------------------------
 Center     Atomic      Atomic             Coordinates (Angstroms)
 Number     Number       Type             X           Y           Z
 ---------------------------------------------------------------------
      1         15           0        0.481599   -0.006680    0.017426
      2          8           0       -0.504985   -0.369793   -1.098613
      3          8           0        1.308955    1.386742   -0.288157
      4          1           0        1.687822    1.458400   -1.177823
      5          8           0        1.742331   -1.081503    0.032431
      6          1           0        1.469442   -2.003106   -0.071213
      7          8           0       -0.028226    0.150694    1.508879
      8          8           0       -3.071785   -0.066612    0.071402
      9          1           0       -2.415926   -0.255014   -0.633754
     10          1           0       -3.535655    0.743715   -0.186147
 ---------------------------------------------------------------------
 Rotational constants (GHZ):      4.2889377      1.5842311      1.5690802
 Standard basis: 6-311G (5D, 7F)
 There are    98 symmetry adapted cartesian basis functions of A   symmetry.
 There are    98 symmetry adapted basis functions of A   symmetry.
    98 basis functions,   190 primitive gaussians,    98 cartesian basis functions
    30 alpha electrons       30 beta electrons
       nuclear repulsion energy       339.7887761594 Hartrees.



 Warning!  P  atom    1 may be hypervalent but has no d functions.



 NAtoms=   10 NActive=   10 NUniq=   10 SFac= 1.00D+00 NAtFMM=   60 NAOKFM=F Big=F
 Integral buffers will be    131072 words long.
 Raffenetti 2 integral format.
 Two-electron integral symmetry is turned on.
 One-electron integrals computed using PRISM.
 NBasis=    98 RedAO= T EigKep=  1.16D-02  NBF=    98
 NBsUse=    98 1.00D-06 EigRej= -1.00D+00 NBFU=    98
 Initial guess from the checkpoint file:  "H3PO4-h2o-A.chk"
 B after Tr=     0.000000    0.000000    0.000000
         Rot=    0.999348    0.011172   -0.032797    0.010134 Ang=   4.14 deg.
 ExpMin= 6.85D-02 ExpMax= 7.75D+04 ExpMxC= 2.65D+03 IAcc=2 IRadAn=         4 AccDes= 0.00D+00
 Harris functional with IExCor=  402 and IRadAn=       4 diagonalized for initial guess.
 HarFok:  IExCor=  402 AccDes= 0.00D+00 IRadAn=         4 IDoV= 1 UseB2=F ITyADJ=14
 ICtDFT=  3500011 ScaDFX=  1.000000  1.000000  1.000000  1.000000
 FoFCou: FMM=F IPFlag=           0 FMFlag=      100000 FMFlg1=           0
         NFxFlg=           0 DoJE=T BraDBF=F KetDBF=T FulRan=T
         wScrn=  0.000000 ICntrl=     500 IOpCl=  0 I1Cent=   200000004 NGrid=           0
         NMat0=    1 NMatS0=      1 NMatT0=    0 NMatD0=    1 NMtDS0=    0 NMtDT0=    0
 Petite list used in FoFCou.
 Keep R1 ints in memory in canonical form, NReq=12736549.
 Requested convergence on RMS density matrix=1.00D-08 within 128 cycles.
 Requested convergence on MAX density matrix=1.00D-06.
 Requested convergence on             energy=1.00D-06.
 No special actions if energy rises.
 Integral accuracy reduced to 1.0D-05 until final iterations.
 Initial convergence to 1.0D-05 achieved.  Increase integral accuracy.
 SCF Done:  E(RB3LYP) =  -719.922987957     A.U. after   14 cycles
            NFock= 14  Conv=0.87D-08     -V/T= 2.0010
 Calling FoFJK, ICntrl=      2127 FMM=F ISym2X=0 I1Cent= 0 IOpClX= 0 NMat=1 NMatS=1 NMatT=0.
 ***** Axes restored to original set *****
 -------------------------------------------------------------------
 Center     Atomic                   Forces (Hartrees/Bohr)
 Number     Number              X              Y              Z
 -------------------------------------------------------------------
      1       15           0.042808086    0.011947125   -0.080244041
      2        8           0.028169429   -0.013884055    0.053468919
      3        8          -0.026142275    0.033275197    0.017677810
      4        1          -0.001125971    0.001531297    0.000964004
      5        8          -0.039585352   -0.029541933    0.010527389
      6        1          -0.000883866   -0.002378275   -0.000829866
      7        8          -0.000821981    0.000255781   -0.000352872
      8        8           0.011532429   -0.003969116    0.011180789
      9        1          -0.014654002   -0.002073944   -0.009965801
     10        1           0.000703502    0.004837923   -0.002426332
 -------------------------------------------------------------------
 Cartesian Forces:  Max     0.080244041 RMS     0.024185213

 GradGradGradGradGradGradGradGradGradGradGradGradGradGradGradGradGradGrad
 Berny optimization.
 Using GEDIIS/GDIIS optimizer.
 FormGI is forming the generalized inverse of G from B-inverse, IUseBI=4.
 Internal  Forces:  Max     0.059131152 RMS     0.018332785
 Search for a local minimum.
 Step number   2 out of a maximum of   41
 All quantities printed in internal units (Hartrees-Bohrs-Radians)
 Mixed Optimization -- RFO/linear search
 Update second derivatives using D2CorX and points    1    2
 DE= -4.26D-02 DEPred=-4.83D-02 R= 8.83D-01
 TightC=F SS=  1.41D+00  RLast= 3.45D-01 DXNew= 5.0454D-01 1.0346D+00
 Trust test= 8.83D-01 RLast= 3.45D-01 DXMaxT set to 5.05D-01
 ITU=  1  0
 Use linear search instead of GDIIS.
 Linear search step of   0.604 exceeds DXMaxT=   0.505 but not scaled.
 Quartic linear search produced a step of  2.00000.
 Iteration  1 RMS(Cart)=  0.30603367 RMS(Int)=  0.04534643
 Iteration  2 RMS(Cart)=  0.15929563 RMS(Int)=  0.01233523
 Iteration  3 RMS(Cart)=  0.01571381 RMS(Int)=  0.00893408
 Iteration  4 RMS(Cart)=  0.00010041 RMS(Int)=  0.00893398
 Iteration  5 RMS(Cart)=  0.00000163 RMS(Int)=  0.00893398
 Iteration  6 RMS(Cart)=  0.00000003 RMS(Int)=  0.00893398
 Variable       Old X    -DE/DX   Delta X   Delta X   Delta X     New X
                                 (Linear)    (Quad)   (Total)
    R1        2.89735   0.05913   0.17397   0.00000   0.17397   3.07132
    R2        3.11634   0.04616   0.17694   0.00000   0.17694   3.29328
    R3        3.13086   0.05078   0.18465   0.00000   0.18465   3.31550
    R4        2.99336   0.00003   0.01195   0.00000   0.01195   3.00531
    R5        3.72279  -0.00223   0.08444   0.00000   0.08444   3.80723
    R6        1.83233   0.00149   0.02143   0.00000   0.02143   1.85376
    R7        1.82685   0.00194   0.00974   0.00000   0.00974   1.83659
    R8        1.85433   0.00313   0.01867   0.00000   0.01867   1.87300
    R9        1.83034   0.00360   0.02432   0.00000   0.02432   1.85466
    A1        1.96932  -0.01111  -0.11762   0.00000  -0.13615   1.83318
    A2        1.92048  -0.01339  -0.14523   0.00000  -0.16053   1.75996
    A3        2.09647   0.01131   0.18783   0.00000   0.19148   2.28795
    A4        1.73967  -0.00406  -0.05660   0.00000  -0.08115   1.65851
    A5        1.82555   0.00737   0.06926   0.00000   0.06907   1.89462
    A6        1.87637   0.00835   0.04594   0.00000   0.04974   1.92612
    A7        2.02486   0.01875   0.36741   0.00000   0.36741   2.39227
    A8        2.01363   0.00280   0.09030   0.00000   0.09030   2.10393
    A9        1.98525   0.00293   0.06046   0.00000   0.06046   2.04570
   A10        1.86465   0.00378   0.03711   0.00000   0.03711   1.90176
   A11        2.54828   0.02346   0.17657   0.00000   0.17657   2.72484
    D1       -1.95565  -0.00976  -0.11938   0.00000  -0.10282  -2.05847
    D2        2.40167   0.00905   0.12758   0.00000   0.10798   2.50965
    D3        0.20998   0.00029   0.03533   0.00000   0.03837   0.24835
    D4       -0.82471   0.01165   0.16277   0.00000   0.15047  -0.67424
    D5        1.21160  -0.01057  -0.10498   0.00000  -0.09419   1.11741
    D6       -3.13277  -0.00094  -0.05450   0.00000  -0.05298   3.09743
    D7       -0.75983  -0.01086  -0.14996   0.00000  -0.13697  -0.89679
    D8       -2.83264   0.00910   0.09185   0.00000   0.07923  -2.75341
    D9        1.55208   0.00028   0.02467   0.00000   0.02430   1.57638
   D10       -0.03644  -0.00336  -0.03872   0.00000  -0.03872  -0.07516
   D11        1.97490  -0.00620  -0.07940   0.00000  -0.07940   1.89550
         Item               Value     Threshold  Converged?
 Maximum Force            0.059131     0.000450     NO 
 RMS     Force            0.018333     0.000300     NO 
 Maximum Displacement     1.208046     0.001800     NO 
 RMS     Displacement     0.437946     0.001200     NO 
 Predicted change in Energy=-1.556330D-02
 GradGradGradGradGradGradGradGradGradGradGradGradGradGradGradGradGradGrad

                          Input orientation:                          
 ---------------------------------------------------------------------
 Center     Atomic      Atomic             Coordinates (Angstroms)
 Number     Number       Type             X           Y           Z
 ---------------------------------------------------------------------
      1         15           0       -2.824325    0.328077   -0.498277
      2          8           0       -1.690494    0.009812    0.621834
      3          8           0       -3.716028    1.685310    0.134094
      4          1           0       -3.917024    1.746982    1.092268
      5          8           0       -4.042823   -0.863708   -0.082169
      6          1           0       -3.750063   -1.786155    0.006902
      7          8           0       -2.718892    0.483389   -2.077503
      8          8           0        1.246852    0.074063    0.374484
      9          1           0        0.321692   -0.003324    0.721573
     10          1           0        1.647339    0.902460    0.715957
 ---------------------------------------------------------------------
                    Distance matrix (angstroms):
                    1          2          3          4          5
     1  P    0.000000
     2  O    1.625274   0.000000
     3  O    1.742730   2.673569   0.000000
     4  H    2.395228   2.862954   0.980968   0.000000
     5  O    1.754489   2.606168   2.578964   2.865455   0.000000
     6  H    2.362661   2.800975   3.473960   3.699858   0.971880
     7  O    1.590344   2.927166   2.707408   3.616578   2.747512
     8  O    4.171417   2.948442   5.223417   5.475353   5.391531
     9  H    3.390470   2.014699   4.415858   4.600837   4.520537
    10  H    4.669054   3.456415   5.451342   5.640653   6.011181
                    6          7          8          9         10
     6  H    0.000000
     7  O    3.249444   0.000000
     8  O    5.344594   4.680482   0.000000
     9  H    4.502047   4.161354   0.991151   0.000000
    10  H    6.071520   5.200290   0.981445   1.605558   0.000000
 Stoichiometry    H4O5P(1-)
 Framework group  C1[X(H4O5P)]
 Deg. of freedom    24
 Full point group                 C1      NOp   1
 Largest Abelian subgroup         C1      NOp   1
 Largest concise Abelian subgroup C1      NOp   1
                         Standard orientation:                         
 ---------------------------------------------------------------------
 Center     Atomic      Atomic             Coordinates (Angstroms)
 Number     Number       Type             X           Y           Z
 ---------------------------------------------------------------------
      1         15           0        0.572795    0.170020    0.007106
      2          8           0       -0.765672   -0.742903    0.135921
      3          8           0        1.382421   -0.413820   -1.421441
      4          1           0        1.399578   -1.372627   -1.628066
      5          8           0        1.639992   -0.648318    1.133892
      6          1           0        1.298183   -0.815465    2.028195
      7          8           0        0.776531    1.744735    0.096319
      8          8           0       -3.597002    0.077768    0.077816
      9          1           0       -2.758841   -0.450213    0.111017
     10          1           0       -4.021010   -0.051701   -0.797793
 ---------------------------------------------------------------------
 Rotational constants (GHZ):      3.8424090      1.2696493      1.2389131
 Standard basis: 6-311G (5D, 7F)
 There are    98 symmetry adapted cartesian basis functions of A   symmetry.
 There are    98 symmetry adapted basis functions of A   symmetry.
    98 basis functions,   190 primitive gaussians,    98 cartesian basis functions
    30 alpha electrons       30 beta electrons
       nuclear repulsion energy       320.6581186436 Hartrees.



 Warning!  P  atom    1 may be hypervalent but has no d functions.



 NAtoms=   10 NActive=   10 NUniq=   10 SFac= 1.00D+00 NAtFMM=   60 NAOKFM=F Big=F
 Integral buffers will be    131072 words long.
 Raffenetti 2 integral format.
 Two-electron integral symmetry is turned on.
 One-electron integrals computed using PRISM.
 NBasis=    98 RedAO= T EigKep=  1.25D-02  NBF=    98
 NBsUse=    98 1.00D-06 EigRej= -1.00D+00 NBFU=    98
 Initial guess from the checkpoint file:  "H3PO4-h2o-A.chk"
 B after Tr=     0.000000    0.000000    0.000000
         Rot=    0.760443    0.645685   -0.039529    0.057044 Ang=  80.99 deg.
 ExpMin= 6.85D-02 ExpMax= 7.75D+04 ExpMxC= 2.65D+03 IAcc=2 IRadAn=         4 AccDes= 0.00D+00
 Harris functional with IExCor=  402 and IRadAn=       4 diagonalized for initial guess.
 HarFok:  IExCor=  402 AccDes= 0.00D+00 IRadAn=         4 IDoV= 1 UseB2=F ITyADJ=14
 ICtDFT=  3500011 ScaDFX=  1.000000  1.000000  1.000000  1.000000
 FoFCou: FMM=F IPFlag=           0 FMFlag=      100000 FMFlg1=           0
         NFxFlg=           0 DoJE=T BraDBF=F KetDBF=T FulRan=T
         wScrn=  0.000000 ICntrl=     500 IOpCl=  0 I1Cent=   200000004 NGrid=           0
         NMat0=    1 NMatS0=      1 NMatT0=    0 NMatD0=    1 NMtDS0=    0 NMtDT0=    0
 Petite list used in FoFCou.
 Keep R1 ints in memory in canonical form, NReq=12736549.
 Requested convergence on RMS density matrix=1.00D-08 within 128 cycles.
 Requested convergence on MAX density matrix=1.00D-06.
 Requested convergence on             energy=1.00D-06.
 No special actions if energy rises.
 Integral accuracy reduced to 1.0D-05 until final iterations.
 Initial convergence to 1.0D-05 achieved.  Increase integral accuracy.
 SCF Done:  E(RB3LYP) =  -719.938709802     A.U. after   16 cycles
            NFock= 16  Conv=0.58D-08     -V/T= 2.0019
 Calling FoFJK, ICntrl=      2127 FMM=F ISym2X=0 I1Cent= 0 IOpClX= 0 NMat=1 NMatS=1 NMatT=0.
 ***** Axes restored to original set *****
 -------------------------------------------------------------------
 Center     Atomic                   Forces (Hartrees/Bohr)
 Number     Number              X              Y              Z
 -------------------------------------------------------------------
      1       15          -0.001496810   -0.005559086    0.027429673
      2        8           0.008304740    0.004098650   -0.015612813
      3        8          -0.006303117    0.012792376   -0.004028797
      4        1           0.008316607   -0.011765357   -0.010949300
      5        8          -0.013765770   -0.004647322   -0.002361647
      6        1           0.006022424    0.004471611   -0.001359136
      7        8           0.006069530    0.001167930    0.010899621
      8        8           0.002185115    0.005169720    0.012468574
      9        1          -0.002202637    0.001482844   -0.012553954
     10        1          -0.007130082   -0.007211367   -0.003932220
 -------------------------------------------------------------------
 Cartesian Forces:  Max     0.027429673 RMS     0.009244551

 GradGradGradGradGradGradGradGradGradGradGradGradGradGradGradGradGradGrad
 Berny optimization.
 Using GEDIIS/GDIIS optimizer.
 FormGI is forming the generalized inverse of G from B-inverse, IUseBI=4.
 Internal  Forces:  Max     0.023056199 RMS     0.008867170
 Search for a local minimum.
 Step number   3 out of a maximum of   41
 All quantities printed in internal units (Hartrees-Bohrs-Radians)
 Mixed Optimization -- RFO/linear search
 Update second derivatives using D2CorX and points    2    3
 ITU=  0  1  0
 Use linear search instead of GDIIS.
     Eigenvalues ---    0.00230   0.01347   0.03309   0.03383   0.04723
     Eigenvalues ---    0.04901   0.10447   0.10663   0.15502   0.16000
     Eigenvalues ---    0.16000   0.16536   0.18986   0.20543   0.21680
     Eigenvalues ---    0.23720   0.42566   0.50420   0.52190   0.54590
     Eigenvalues ---    0.54747   0.55053   0.55467   0.74220
 RFO step:  Lambda=-7.09585047D-03 EMin= 2.30416618D-03
 Quartic linear search produced a step of -0.28562.
 Iteration  1 RMS(Cart)=  0.15255222 RMS(Int)=  0.01501272
 Iteration  2 RMS(Cart)=  0.01516077 RMS(Int)=  0.00087630
 Iteration  3 RMS(Cart)=  0.00021279 RMS(Int)=  0.00086132
 Iteration  4 RMS(Cart)=  0.00000009 RMS(Int)=  0.00086132
 Variable       Old X    -DE/DX   Delta X   Delta X   Delta X     New X
                                 (Linear)    (Quad)   (Total)
    R1        3.07132  -0.01342  -0.04969   0.02063  -0.02906   3.04227
    R2        3.29328  -0.00567  -0.05054   0.02853  -0.02201   3.27128
    R3        3.31550   0.00462  -0.05274   0.04652  -0.00622   3.30928
    R4        3.00531  -0.01031  -0.00341  -0.01245  -0.01587   2.98945
    R5        3.80723  -0.00733  -0.02412  -0.11661  -0.14073   3.66650
    R6        1.85376  -0.01314  -0.00612  -0.01489  -0.02101   1.83275
    R7        1.83659  -0.00255  -0.00278  -0.00169  -0.00447   1.83212
    R8        1.87300  -0.00776  -0.00533  -0.00767  -0.01301   1.86000
    R9        1.85466  -0.01036  -0.00695  -0.00994  -0.01689   1.83778
    A1        1.83318   0.01099   0.03889   0.01273   0.05310   1.88627
    A2        1.75996   0.01178   0.04585   0.02067   0.06839   1.82834
    A3        2.28795  -0.01546  -0.05469  -0.03675  -0.09209   2.19586
    A4        1.65851   0.00148   0.02318   0.00409   0.02956   1.68807
    A5        1.89462  -0.00373  -0.01973  -0.00649  -0.02695   1.86766
    A6        1.92612   0.00056  -0.01421   0.01896   0.00468   1.93079
    A7        2.39227  -0.00078  -0.10494   0.03711  -0.06783   2.32444
    A8        2.10393  -0.02306  -0.02579  -0.09173  -0.11752   1.98641
    A9        2.04570  -0.01316  -0.01727  -0.04988  -0.06715   1.97856
   A10        1.90176  -0.00485  -0.01060  -0.01338  -0.02398   1.87778
   A11        2.72484   0.01241  -0.05043   0.06813   0.01770   2.74255
    D1       -2.05847   0.00526   0.02937   0.01167   0.03923  -2.01923
    D2        2.50965  -0.00239  -0.03084  -0.00182  -0.03138   2.47826
    D3        0.24835  -0.00351  -0.01096  -0.02402  -0.03445   0.21390
    D4       -0.67424  -0.00987  -0.04298  -0.02606  -0.06797  -0.74221
    D5        1.11741   0.00454   0.02690  -0.00131   0.02451   1.14192
    D6        3.09743   0.00484   0.01513   0.01929   0.03443   3.13186
    D7       -0.89679   0.00808   0.03912   0.01385   0.05153  -0.84527
    D8       -2.75341  -0.00531  -0.02263  -0.00323  -0.02461  -2.77802
    D9        1.57638  -0.00200  -0.00694  -0.00253  -0.00928   1.56710
   D10       -0.07516  -0.00136   0.01106  -0.17194  -0.16088  -0.23604
   D11        1.89550  -0.00353   0.02268  -0.18108  -0.15841   1.73709
         Item               Value     Threshold  Converged?
 Maximum Force            0.023056     0.000450     NO 
 RMS     Force            0.008867     0.000300     NO 
 Maximum Displacement     0.482735     0.001800     NO 
 RMS     Displacement     0.159386     0.001200     NO 
 Predicted change in Energy=-5.790943D-03
 GradGradGradGradGradGradGradGradGradGradGradGradGradGradGradGradGradGrad

                          Input orientation:                          
 ---------------------------------------------------------------------
 Center     Atomic      Atomic             Coordinates (Angstroms)
 Number     Number       Type             X           Y           Z
 ---------------------------------------------------------------------
      1         15           0       -2.781992    0.321113   -0.391394
      2          8           0       -1.686931   -0.008479    0.741735
      3          8           0       -3.681707    1.709245    0.118762
      4          1           0       -3.922395    1.696312    1.058183
      5          8           0       -4.055425   -0.853583   -0.136147
      6          1           0       -3.728153   -1.761555   -0.044290
      7          8           0       -2.490670    0.500471   -1.935908
      8          8           0        1.162868    0.028668    0.381351
      9          1           0        0.253212    0.002718    0.756367
     10          1           0        1.487426    0.941998    0.460505
 ---------------------------------------------------------------------
                    Distance matrix (angstroms):
                    1          2          3          4          5
     1  P    0.000000
     2  O    1.609898   0.000000
     3  O    1.731085   2.705143   0.000000
     4  H    2.300644   2.829090   0.969850   0.000000
     5  O    1.751198   2.663577   2.602447   2.818880   0.000000
     6  H    2.313700   2.803158   3.474938   3.634559   0.969514
     7  O    1.581949   2.841619   2.664840   3.527669   2.742455
     8  O    4.030457   2.872736   5.134510   5.394352   5.317589
     9  H    3.260551   1.940230   4.336168   4.516087   4.482654
    10  H    4.397631   3.325513   5.236925   5.494758   5.856902
                    6          7          8          9         10
     6  H    0.000000
     7  O    3.197865   0.000000
     8  O    5.225720   4.352084   0.000000
     9  H    4.427750   3.876209   0.984269   0.000000
    10  H    5.896293   4.665082   0.972510   1.578945   0.000000
 Stoichiometry    H4O5P(1-)
 Framework group  C1[X(H4O5P)]
 Deg. of freedom    24
 Full point group                 C1      NOp   1
 Largest Abelian subgroup         C1      NOp   1
 Largest concise Abelian subgroup C1      NOp   1
                         Standard orientation:                         
 ---------------------------------------------------------------------
 Center     Atomic      Atomic             Coordinates (Angstroms)
 Number     Number       Type             X           Y           Z
 ---------------------------------------------------------------------
      1         15           0        0.547167    0.088682    0.090904
      2          8           0       -0.738510   -0.706789   -0.462297
      3          8           0        1.414057    0.719707   -1.268126
      4          1           0        1.491446    0.096273   -2.007010
      5          8           0        1.700401   -1.161798    0.506888
      6          1           0        1.318535   -1.874359    1.042045
      7          8           0        0.530388    1.221063    1.195437
      8          8           0       -3.481047   -0.045268    0.079449
      9          1           0       -2.650293   -0.427501   -0.284598
     10          1           0       -3.769502    0.660039   -0.524795
 ---------------------------------------------------------------------
 Rotational constants (GHZ):      3.9472994      1.3273802      1.3058947
 Standard basis: 6-311G (5D, 7F)
 There are    98 symmetry adapted cartesian basis functions of A   symmetry.
 There are    98 symmetry adapted basis functions of A   symmetry.
    98 basis functions,   190 primitive gaussians,    98 cartesian basis functions
    30 alpha electrons       30 beta electrons
       nuclear repulsion energy       324.2076845932 Hartrees.



 Warning!  P  atom    1 may be hypervalent but has no d functions.



 NAtoms=   10 NActive=   10 NUniq=   10 SFac= 1.00D+00 NAtFMM=   60 NAOKFM=F Big=F
 Integral buffers will be    131072 words long.
 Raffenetti 2 integral format.
 Two-electron integral symmetry is turned on.
 One-electron integrals computed using PRISM.
 NBasis=    98 RedAO= T EigKep=  1.25D-02  NBF=    98
 NBsUse=    98 1.00D-06 EigRej= -1.00D+00 NBFU=    98
 Initial guess from the checkpoint file:  "H3PO4-h2o-A.chk"
 B after Tr=     0.000000    0.000000    0.000000
         Rot=    0.933956   -0.356856    0.007753   -0.017876 Ang= -41.88 deg.
 ExpMin= 6.85D-02 ExpMax= 7.75D+04 ExpMxC= 2.65D+03 IAcc=2 IRadAn=         4 AccDes= 0.00D+00
 Harris functional with IExCor=  402 and IRadAn=       4 diagonalized for initial guess.
 HarFok:  IExCor=  402 AccDes= 0.00D+00 IRadAn=         4 IDoV= 1 UseB2=F ITyADJ=14
 ICtDFT=  3500011 ScaDFX=  1.000000  1.000000  1.000000  1.000000
 FoFCou: FMM=F IPFlag=           0 FMFlag=      100000 FMFlg1=           0
         NFxFlg=           0 DoJE=T BraDBF=F KetDBF=T FulRan=T
         wScrn=  0.000000 ICntrl=     500 IOpCl=  0 I1Cent=   200000004 NGrid=           0
         NMat0=    1 NMatS0=      1 NMatT0=    0 NMatD0=    1 NMtDS0=    0 NMtDT0=    0
 Petite list used in FoFCou.
 Keep R1 ints in memory in canonical form, NReq=12736549.
 Requested convergence on RMS density matrix=1.00D-08 within 128 cycles.
 Requested convergence on MAX density matrix=1.00D-06.
 Requested convergence on             energy=1.00D-06.
 No special actions if energy rises.
 Integral accuracy reduced to 1.0D-05 until final iterations.
 Initial convergence to 1.0D-05 achieved.  Increase integral accuracy.
 SCF Done:  E(RB3LYP) =  -719.946586639     A.U. after   15 cycles
            NFock= 15  Conv=0.42D-08     -V/T= 2.0017
 Calling FoFJK, ICntrl=      2127 FMM=F ISym2X=0 I1Cent= 0 IOpClX= 0 NMat=1 NMatS=1 NMatT=0.
 ***** Axes restored to original set *****
 -------------------------------------------------------------------
 Center     Atomic                   Forces (Hartrees/Bohr)
 Number     Number              X              Y              Z
 -------------------------------------------------------------------
      1       15           0.008427827   -0.000760522    0.000965556
      2        8           0.003161601    0.002075950   -0.003061993
      3        8          -0.003822911    0.005829799   -0.001371141
      4        1           0.001231072   -0.003143038    0.001284522
      5        8          -0.008306341   -0.001448935    0.001692938
      6        1           0.003144859   -0.000491585    0.000160909
      7        8           0.002290827   -0.000488423    0.003618729
      8        8           0.004484036    0.002912175    0.009112145
      9        1          -0.008751670   -0.003362659   -0.010134263
     10        1          -0.001859302   -0.001122763   -0.002267402
 -------------------------------------------------------------------
 Cartesian Forces:  Max     0.010134263 RMS     0.004376168

 GradGradGradGradGradGradGradGradGradGradGradGradGradGradGradGradGradGrad
 Berny optimization.
 Using GEDIIS/GDIIS optimizer.
 FormGI is forming the generalized inverse of G from B-inverse, IUseBI=4.
 Internal  Forces:  Max     0.012193761 RMS     0.003676995
 Search for a local minimum.
 Step number   4 out of a maximum of   41
 All quantities printed in internal units (Hartrees-Bohrs-Radians)
 Mixed Optimization -- RFO/linear search
 Update second derivatives using D2CorX and points    3    4
 DE= -7.88D-03 DEPred=-5.79D-03 R= 1.36D+00
 TightC=F SS=  1.41D+00  RLast= 3.58D-01 DXNew= 8.4853D-01 1.0741D+00
 Trust test= 1.36D+00 RLast= 3.58D-01 DXMaxT set to 8.49D-01
 ITU=  1  0  1  0
 Use linear search instead of GDIIS.
     Eigenvalues ---    0.00224   0.01220   0.03305   0.03382   0.03997
     Eigenvalues ---    0.04898   0.10674   0.11506   0.14242   0.15348
     Eigenvalues ---    0.16007   0.16043   0.18934   0.20667   0.21415
     Eigenvalues ---    0.23600   0.42767   0.50462   0.52304   0.54557
     Eigenvalues ---    0.54781   0.55049   0.56757   0.73208
 RFO step:  Lambda=-4.20810074D-03 EMin= 2.24078325D-03
 Quartic linear search produced a step of  0.43098.
 Iteration  1 RMS(Cart)=  0.11124102 RMS(Int)=  0.04960747
 Iteration  2 RMS(Cart)=  0.09751893 RMS(Int)=  0.01923942
 Iteration  3 RMS(Cart)=  0.01720550 RMS(Int)=  0.00048820
 Iteration  4 RMS(Cart)=  0.00040321 RMS(Int)=  0.00041359
 Iteration  5 RMS(Cart)=  0.00000026 RMS(Int)=  0.00041359
 Variable       Old X    -DE/DX   Delta X   Delta X   Delta X     New X
                                 (Linear)    (Quad)   (Total)
    R1        3.04227  -0.00659  -0.01252  -0.00189  -0.01441   3.02786
    R2        3.27128   0.00348  -0.00948   0.01684   0.00735   3.27863
    R3        3.30928   0.00532  -0.00268   0.01934   0.01666   3.32595
    R4        2.98945  -0.00317  -0.00684  -0.00471  -0.01154   2.97791
    R5        3.66650  -0.00616  -0.06065  -0.13429  -0.19494   3.47157
    R6        1.83275   0.00099  -0.00906   0.00671  -0.00235   1.83040
    R7        1.83212   0.00154  -0.00193   0.00484   0.00292   1.83503
    R8        1.86000  -0.00014  -0.00561   0.00238  -0.00323   1.85677
    R9        1.83778  -0.00186  -0.00728  -0.00104  -0.00832   1.82946
    A1        1.88627   0.00141   0.02288  -0.00263   0.01927   1.90555
    A2        1.82834   0.00035   0.02947  -0.01312   0.01582   1.84417
    A3        2.19586  -0.00369  -0.03969  -0.00723  -0.04680   2.14905
    A4        1.68807  -0.00229   0.01274  -0.01643  -0.00483   1.68324
    A5        1.86766   0.00191  -0.01162   0.01931   0.00744   1.87511
    A6        1.93079   0.00253   0.00202   0.01673   0.01918   1.94997
    A7        2.32444   0.00065  -0.02923   0.02026  -0.00897   2.31547
    A8        1.98641  -0.00637  -0.05065  -0.02981  -0.08046   1.90595
    A9        1.97856  -0.00508  -0.02894  -0.02902  -0.05796   1.92060
   A10        1.87778  -0.00063  -0.01033  -0.00040  -0.01073   1.86704
   A11        2.74255   0.01219   0.00763   0.06464   0.07227   2.81482
    D1       -2.01923  -0.00147   0.01691  -0.02580  -0.00837  -2.02760
    D2        2.47826   0.00044  -0.01353  -0.00160  -0.01622   2.46204
    D3        0.21390  -0.00042  -0.01485  -0.00557  -0.01985   0.19405
    D4       -0.74221  -0.00075  -0.02929   0.00628  -0.02350  -0.76571
    D5        1.14192  -0.00092   0.01056  -0.01471  -0.00377   1.13815
    D6        3.13186   0.00143   0.01484   0.00210   0.01706  -3.13427
    D7       -0.84527   0.00133   0.02221   0.00498   0.02752  -0.81774
    D8       -2.77802   0.00051  -0.01061   0.01609   0.00505  -2.77297
    D9        1.56710  -0.00127  -0.00400  -0.00235  -0.00625   1.56085
   D10       -0.23604  -0.00217  -0.06934  -0.31223  -0.38157  -0.61761
   D11        1.73709  -0.00439  -0.06827  -0.26397  -0.33225   1.40485
         Item               Value     Threshold  Converged?
 Maximum Force            0.012194     0.000450     NO 
 RMS     Force            0.003677     0.000300     NO 
 Maximum Displacement     0.746448     0.001800     NO 
 RMS     Displacement     0.197430     0.001200     NO 
 Predicted change in Energy=-3.576891D-03
 GradGradGradGradGradGradGradGradGradGradGradGradGradGradGradGradGradGrad

                          Input orientation:                          
 ---------------------------------------------------------------------
 Center     Atomic      Atomic             Coordinates (Angstroms)
 Number     Number       Type             X           Y           Z
 ---------------------------------------------------------------------
      1         15           0       -2.738698    0.357135   -0.349434
      2          8           0       -1.672289    0.031171    0.801130
      3          8           0       -3.699648    1.718674    0.133192
      4          1           0       -3.954690    1.615436    1.061897
      5          8           0       -4.007235   -0.850730   -0.177592
      6          1           0       -3.615021   -1.733662   -0.079857
      7          8           0       -2.338890    0.572519   -1.858419
      8          8           0        1.103246   -0.003368    0.567649
      9          1           0        0.163779    0.073131    0.845094
     10          1           0        1.315678    0.796602    0.065502
 ---------------------------------------------------------------------
                    Distance matrix (angstroms):
                    1          2          3          4          5
     1  P    0.000000
     2  O    1.602273   0.000000
     3  O    1.734976   2.721028   0.000000
     4  H    2.248068   2.790564   0.968606   0.000000
     5  O    1.760015   2.680974   2.606346   2.760629   0.000000
     6  H    2.282991   2.768570   3.459939   3.554635   0.971057
     7  O    1.575841   2.794748   2.670552   3.496674   2.763004
     8  O    3.966300   2.785552   5.120739   5.333622   5.233586
     9  H    3.151496   1.837073   4.259188   4.403123   4.392808
    10  H    4.099179   3.170959   5.099833   5.425871   5.577293
                    6          7          8          9         10
     6  H    0.000000
     7  O    3.179664   0.000000
     8  O    5.067072   4.250383   0.000000
     9  H    4.289448   3.717758   0.982560   0.000000
    10  H    5.543930   4.136128   0.968107   1.567816   0.000000
 Stoichiometry    H4O5P(1-)
 Framework group  C1[X(H4O5P)]
 Deg. of freedom    24
 Full point group                 C1      NOp   1
 Largest Abelian subgroup         C1      NOp   1
 Largest concise Abelian subgroup C1      NOp   1
                         Standard orientation:                         
 ---------------------------------------------------------------------
 Center     Atomic      Atomic             Coordinates (Angstroms)
 Number     Number       Type             X           Y           Z
 ---------------------------------------------------------------------
      1         15           0        0.534981    0.091955    0.081999
      2          8           0       -0.748777   -0.685282   -0.479381
      3          8           0        1.477419    0.674665   -1.253066
      4          1           0        1.545212   -0.021521   -1.923086
      5          8           0        1.663833   -1.159436    0.589313
      6          1           0        1.201504   -1.830420    1.117503
      7          8           0        0.442342    1.257214    1.138817
      8          8           0       -3.426384   -0.091155    0.007174
      9          1           0       -2.553098   -0.364933   -0.350377
     10          1           0       -3.485801    0.869509   -0.096874
 ---------------------------------------------------------------------
 Rotational constants (GHZ):      3.9934730      1.3644898      1.3394580
 Standard basis: 6-311G (5D, 7F)
 There are    98 symmetry adapted cartesian basis functions of A   symmetry.
 There are    98 symmetry adapted basis functions of A   symmetry.
    98 basis functions,   190 primitive gaussians,    98 cartesian basis functions
    30 alpha electrons       30 beta electrons
       nuclear repulsion energy       326.0818393662 Hartrees.



 Warning!  P  atom    1 may be hypervalent but has no d functions.



 NAtoms=   10 NActive=   10 NUniq=   10 SFac= 1.00D+00 NAtFMM=   60 NAOKFM=F Big=F
 Integral buffers will be    131072 words long.
 Raffenetti 2 integral format.
 Two-electron integral symmetry is turned on.
 One-electron integrals computed using PRISM.
 NBasis=    98 RedAO= T EigKep=  1.24D-02  NBF=    98
 NBsUse=    98 1.00D-06 EigRej= -1.00D+00 NBFU=    98
 Initial guess from the checkpoint file:  "H3PO4-h2o-A.chk"
 B after Tr=     0.000000    0.000000    0.000000
         Rot=    0.999866    0.013241    0.009541    0.001111 Ang=   1.87 deg.
 ExpMin= 6.85D-02 ExpMax= 7.75D+04 ExpMxC= 2.65D+03 IAcc=2 IRadAn=         4 AccDes= 0.00D+00
 Harris functional with IExCor=  402 and IRadAn=       4 diagonalized for initial guess.
 HarFok:  IExCor=  402 AccDes= 0.00D+00 IRadAn=         4 IDoV= 1 UseB2=F ITyADJ=14
 ICtDFT=  3500011 ScaDFX=  1.000000  1.000000  1.000000  1.000000
 FoFCou: FMM=F IPFlag=           0 FMFlag=      100000 FMFlg1=           0
         NFxFlg=           0 DoJE=T BraDBF=F KetDBF=T FulRan=T
         wScrn=  0.000000 ICntrl=     500 IOpCl=  0 I1Cent=   200000004 NGrid=           0
         NMat0=    1 NMatS0=      1 NMatT0=    0 NMatD0=    1 NMtDS0=    0 NMtDT0=    0
 Petite list used in FoFCou.
 Keep R1 ints in memory in canonical form, NReq=12736549.
 Requested convergence on RMS density matrix=1.00D-08 within 128 cycles.
 Requested convergence on MAX density matrix=1.00D-06.
 Requested convergence on             energy=1.00D-06.
 No special actions if energy rises.
 Integral accuracy reduced to 1.0D-05 until final iterations.
 Initial convergence to 1.0D-05 achieved.  Increase integral accuracy.
 SCF Done:  E(RB3LYP) =  -719.951270848     A.U. after   15 cycles
            NFock= 15  Conv=0.38D-08     -V/T= 2.0017
 Calling FoFJK, ICntrl=      2127 FMM=F ISym2X=0 I1Cent= 0 IOpClX= 0 NMat=1 NMatS=1 NMatT=0.
 ***** Axes restored to original set *****
 -------------------------------------------------------------------
 Center     Atomic                   Forces (Hartrees/Bohr)
 Number     Number              X              Y              Z
 -------------------------------------------------------------------
      1       15           0.007189939    0.001288203   -0.004295018
      2        8           0.001195598    0.001928094    0.001780207
      3        8          -0.001036105    0.000827052    0.000266203
      4        1          -0.002496307    0.001444360    0.004326389
      5        8          -0.001890017   -0.000443194    0.001386684
      6        1           0.000221241   -0.002124084    0.000647329
      7        8           0.001132646   -0.000213599   -0.002020679
      8        8           0.005560474    0.003228360    0.005602218
      9        1          -0.009504186   -0.006534443   -0.004676930
     10        1          -0.000373283    0.000599251   -0.003016404
 -------------------------------------------------------------------
 Cartesian Forces:  Max     0.009504186 RMS     0.003475102

 GradGradGradGradGradGradGradGradGradGradGradGradGradGradGradGradGradGrad
 Berny optimization.
 Using GEDIIS/GDIIS optimizer.
 FormGI is forming the generalized inverse of G from B-inverse, IUseBI=4.
 Internal  Forces:  Max     0.008015702 RMS     0.002844065
 Search for a local minimum.
 Step number   5 out of a maximum of   41
 All quantities printed in internal units (Hartrees-Bohrs-Radians)
 Mixed Optimization -- RFO/linear search
 Update second derivatives using D2CorX and points    4    5
 DE= -4.68D-03 DEPred=-3.58D-03 R= 1.31D+00
 TightC=F SS=  1.41D+00  RLast= 5.62D-01 DXNew= 1.4270D+00 1.6855D+00
 Trust test= 1.31D+00 RLast= 5.62D-01 DXMaxT set to 1.43D+00
 ITU=  1  1  0  1  0
 Use linear search instead of GDIIS.
     Eigenvalues ---    0.00189   0.00776   0.03274   0.03378   0.03528
     Eigenvalues ---    0.04907   0.10417   0.11712   0.15105   0.15449
     Eigenvalues ---    0.16036   0.16343   0.19592   0.20412   0.21112
     Eigenvalues ---    0.24880   0.42760   0.50551   0.52584   0.54555
     Eigenvalues ---    0.54817   0.55118   0.60216   0.72420
 RFO step:  Lambda=-2.24704950D-03 EMin= 1.88514522D-03
 Quartic linear search produced a step of  0.80783.
 Iteration  1 RMS(Cart)=  0.10177922 RMS(Int)=  0.08554247
 Iteration  2 RMS(Cart)=  0.10645325 RMS(Int)=  0.04517637
 Iteration  3 RMS(Cart)=  0.07636645 RMS(Int)=  0.01106130
 Iteration  4 RMS(Cart)=  0.00947157 RMS(Int)=  0.00007469
 Iteration  5 RMS(Cart)=  0.00009851 RMS(Int)=  0.00004877
 Iteration  6 RMS(Cart)=  0.00000001 RMS(Int)=  0.00004877
 Variable       Old X    -DE/DX   Delta X   Delta X   Delta X     New X
                                 (Linear)    (Quad)   (Total)
    R1        3.02786  -0.00214  -0.01164  -0.00052  -0.01216   3.01570
    R2        3.27863   0.00502   0.00594   0.01240   0.01834   3.29697
    R3        3.32595   0.00316   0.01346   0.00913   0.02259   3.34853
    R4        2.97791   0.00219  -0.00932   0.00573  -0.00360   2.97431
    R5        3.47157  -0.00443  -0.15748  -0.09129  -0.24876   3.22280
    R6        1.83040   0.00465  -0.00190   0.00801   0.00611   1.83651
    R7        1.83503   0.00208   0.00236   0.00385   0.00621   1.84124
    R8        1.85677   0.00393  -0.00261   0.00949   0.00688   1.86365
    R9        1.82946   0.00197  -0.00672   0.00390  -0.00283   1.82663
    A1        1.90555  -0.00119   0.01557  -0.00305   0.01253   1.91807
    A2        1.84417  -0.00259   0.01278  -0.01375  -0.00099   1.84317
    A3        2.14905   0.00072  -0.03781   0.00273  -0.03502   2.11403
    A4        1.68324  -0.00111  -0.00390  -0.00343  -0.00746   1.67578
    A5        1.87511   0.00223   0.00601   0.01170   0.01774   1.89284
    A6        1.94997   0.00144   0.01549   0.00413   0.01957   1.96955
    A7        2.31547  -0.00094  -0.00725  -0.00242  -0.00967   2.30580
    A8        1.90595   0.00425  -0.06500   0.03519  -0.02980   1.87614
    A9        1.92060   0.00127  -0.04682   0.01330  -0.03352   1.88707
   A10        1.86704  -0.00024  -0.00867  -0.00731  -0.01598   1.85106
   A11        2.81482   0.00802   0.05838   0.04008   0.09846   2.91328
    D1       -2.02760  -0.00261  -0.00676  -0.02768  -0.03429  -2.06189
    D2        2.46204   0.00015  -0.01310  -0.01695  -0.03009   2.43195
    D3        0.19405   0.00015  -0.01604  -0.01071  -0.02685   0.16719
    D4       -0.76571   0.00170  -0.01898   0.00585  -0.01311  -0.77881
    D5        1.13815  -0.00184  -0.00305  -0.01121  -0.01428   1.12387
    D6       -3.13427  -0.00012   0.01378  -0.00492   0.00886  -3.12541
    D7       -0.81774  -0.00049   0.02223   0.00770   0.03000  -0.78775
    D8       -2.77297   0.00177   0.00408   0.01538   0.01949  -2.75348
    D9        1.56085  -0.00059  -0.00505   0.00284  -0.00231   1.55855
   D10       -0.61761  -0.00230  -0.30824  -0.16941  -0.47766  -1.09526
   D11        1.40485  -0.00417  -0.26840  -0.21582  -0.48422   0.92063
         Item               Value     Threshold  Converged?
 Maximum Force            0.008016     0.000450     NO 
 RMS     Force            0.002844     0.000300     NO 
 Maximum Displacement     1.007736     0.001800     NO 
 RMS     Displacement     0.263211     0.001200     NO 
 Predicted change in Energy=-3.668661D-03
 GradGradGradGradGradGradGradGradGradGradGradGradGradGradGradGradGradGrad

                          Input orientation:                          
 ---------------------------------------------------------------------
 Center     Atomic      Atomic             Coordinates (Angstroms)
 Number     Number       Type             X           Y           Z
 ---------------------------------------------------------------------
      1         15           0       -2.703142    0.426777   -0.326500
      2          8           0       -1.638066    0.131203    0.824566
      3          8           0       -3.776776    1.708173    0.172746
      4          1           0       -4.038762    1.528604    1.091216
      5          8           0       -3.901070   -0.873971   -0.212969
      6          1           0       -3.423901   -1.717430   -0.111825
      7          8           0       -2.245271    0.708482   -1.805781
      8          8           0        1.035540    0.155172    0.730398
      9          1           0        0.062961    0.246568    0.865799
     10          1           0        1.184720    0.263331   -0.218488
 ---------------------------------------------------------------------
                    Distance matrix (angstroms):
                    1          2          3          4          5
     1  P    0.000000
     2  O    1.595840   0.000000
     3  O    1.744681   2.736016   0.000000
     4  H    2.237816   2.790550   0.971838   0.000000
     5  O    1.771967   2.684780   2.613751   2.737192   0.000000
     6  H    2.272269   2.735595   3.455468   3.515978   0.974343
     7  O    1.573936   2.760557   2.694338   3.504540   2.789781
     8  O    3.894682   2.675371   5.087354   5.269254   5.130224
     9  H    3.017512   1.705433   4.166556   4.303320   4.258273
    10  H    3.892795   3.012232   5.182381   5.531818   5.211406
                    6          7          8          9         10
     6  H    0.000000
     7  O    3.184918   0.000000
     8  O    4.909439   4.183548   0.000000
     9  H    4.119617   3.560707   0.986203   0.000000
    10  H    5.017388   3.805587   0.966612   1.560225   0.000000
 Stoichiometry    H4O5P(1-)
 Framework group  C1[X(H4O5P)]
 Deg. of freedom    24
 Full point group                 C1      NOp   1
 Largest Abelian subgroup         C1      NOp   1
 Largest concise Abelian subgroup C1      NOp   1
                         Standard orientation:                         
 ---------------------------------------------------------------------
 Center     Atomic      Atomic             Coordinates (Angstroms)
 Number     Number       Type             X           Y           Z
 ---------------------------------------------------------------------
      1         15           0        0.524067    0.115538    0.058991
      2          8           0       -0.773667   -0.702969   -0.379913
      3          8           0        1.546488    0.395275   -1.326763
      4          1           0        1.599705   -0.438270   -1.823593
      5          8           0        1.589969   -1.064360    0.841016
      6          1           0        1.051418   -1.603704    1.447989
      7          8           0        0.402835    1.460092    0.868159
      8          8           0       -3.362270   -0.095382   -0.083974
      9          1           0       -2.435565   -0.322976   -0.333002
     10          1           0       -3.303413    0.690631    0.475542
 ---------------------------------------------------------------------
 Rotational constants (GHZ):      4.0014300      1.4018689      1.3753698
 Standard basis: 6-311G (5D, 7F)
 There are    98 symmetry adapted cartesian basis functions of A   symmetry.
 There are    98 symmetry adapted basis functions of A   symmetry.
    98 basis functions,   190 primitive gaussians,    98 cartesian basis functions
    30 alpha electrons       30 beta electrons
       nuclear repulsion energy       327.5099050887 Hartrees.



 Warning!  P  atom    1 may be hypervalent but has no d functions.



 NAtoms=   10 NActive=   10 NUniq=   10 SFac= 1.00D+00 NAtFMM=   60 NAOKFM=F Big=F
 Integral buffers will be    131072 words long.
 Raffenetti 2 integral format.
 Two-electron integral symmetry is turned on.
 One-electron integrals computed using PRISM.
 NBasis=    98 RedAO= T EigKep=  1.23D-02  NBF=    98
 NBsUse=    98 1.00D-06 EigRej= -1.00D+00 NBFU=    98
 Initial guess from the checkpoint file:  "H3PO4-h2o-A.chk"
 B after Tr=     0.000000    0.000000    0.000000
         Rot=    0.995730    0.091776    0.008723    0.004765 Ang=  10.59 deg.
 ExpMin= 6.85D-02 ExpMax= 7.75D+04 ExpMxC= 2.65D+03 IAcc=2 IRadAn=         4 AccDes= 0.00D+00
 Harris functional with IExCor=  402 and IRadAn=       4 diagonalized for initial guess.
 HarFok:  IExCor=  402 AccDes= 0.00D+00 IRadAn=         4 IDoV= 1 UseB2=F ITyADJ=14
 ICtDFT=  3500011 ScaDFX=  1.000000  1.000000  1.000000  1.000000
 FoFCou: FMM=F IPFlag=           0 FMFlag=      100000 FMFlg1=           0
         NFxFlg=           0 DoJE=T BraDBF=F KetDBF=T FulRan=T
         wScrn=  0.000000 ICntrl=     500 IOpCl=  0 I1Cent=   200000004 NGrid=           0
         NMat0=    1 NMatS0=      1 NMatT0=    0 NMatD0=    1 NMtDS0=    0 NMtDT0=    0
 Petite list used in FoFCou.
 Keep R1 ints in memory in canonical form, NReq=12736549.
 Requested convergence on RMS density matrix=1.00D-08 within 128 cycles.
 Requested convergence on MAX density matrix=1.00D-06.
 Requested convergence on             energy=1.00D-06.
 No special actions if energy rises.
 Integral accuracy reduced to 1.0D-05 until final iterations.
 Initial convergence to 1.0D-05 achieved.  Increase integral accuracy.
 SCF Done:  E(RB3LYP) =  -719.954066925     A.U. after   15 cycles
            NFock= 15  Conv=0.54D-08     -V/T= 2.0016
 Calling FoFJK, ICntrl=      2127 FMM=F ISym2X=0 I1Cent= 0 IOpClX= 0 NMat=1 NMatS=1 NMatT=0.
 ***** Axes restored to original set *****
 -------------------------------------------------------------------
 Center     Atomic                   Forces (Hartrees/Bohr)
 Number     Number              X              Y              Z
 -------------------------------------------------------------------
      1       15           0.001385987    0.003923872   -0.004438797
      2        8          -0.001164838   -0.000245092    0.003906948
      3        8           0.001700645   -0.003620128    0.001334779
      4        1          -0.003015419    0.002757166    0.002404393
      5        8           0.003448407    0.000322076    0.000435451
      6        1          -0.001989553   -0.001343536    0.000700562
      7        8          -0.000393683   -0.000213568   -0.004530199
      8        8           0.005648111    0.002279252    0.001451475
      9        1          -0.006543901   -0.003917895    0.002582944
     10        1           0.000924243    0.000057852   -0.003847556
 -------------------------------------------------------------------
 Cartesian Forces:  Max     0.006543901 RMS     0.002903030

 GradGradGradGradGradGradGradGradGradGradGradGradGradGradGradGradGradGrad
 Berny optimization.
 Using GEDIIS/GDIIS optimizer.
 FormGI is forming the generalized inverse of G from B-inverse, IUseBI=4.
 Internal  Forces:  Max     0.007305584 RMS     0.002630511
 Search for a local minimum.
 Step number   6 out of a maximum of   41
 All quantities printed in internal units (Hartrees-Bohrs-Radians)
 Mixed Optimization -- RFO/linear search
 Update second derivatives using D2CorX and points    5    6
 DE= -2.80D-03 DEPred=-3.67D-03 R= 7.62D-01
 TightC=F SS=  1.41D+00  RLast= 7.38D-01 DXNew= 2.4000D+00 2.2135D+00
 Trust test= 7.62D-01 RLast= 7.38D-01 DXMaxT set to 2.21D+00
 ITU=  1  1  1  0  1  0
 Use linear search instead of GDIIS.
     Eigenvalues ---    0.00318   0.00940   0.03215   0.03376   0.03529
     Eigenvalues ---    0.04914   0.10161   0.11836   0.15059   0.15511
     Eigenvalues ---    0.16029   0.16422   0.19185   0.20057   0.20915
     Eigenvalues ---    0.23788   0.42576   0.50556   0.52513   0.54581
     Eigenvalues ---    0.54964   0.55142   0.58156   0.72696
 RFO step:  Lambda=-8.54099821D-04 EMin= 3.18044344D-03
 Quartic linear search produced a step of -0.03443.
 Iteration  1 RMS(Cart)=  0.03441100 RMS(Int)=  0.00270741
 Iteration  2 RMS(Cart)=  0.00537240 RMS(Int)=  0.00005844
 Iteration  3 RMS(Cart)=  0.00003616 RMS(Int)=  0.00003396
 Iteration  4 RMS(Cart)=  0.00000000 RMS(Int)=  0.00003396
 Variable       Old X    -DE/DX   Delta X   Delta X   Delta X     New X
                                 (Linear)    (Quad)   (Total)
    R1        3.01570   0.00253   0.00042   0.00399   0.00441   3.02011
    R2        3.29697   0.00124  -0.00063   0.00688   0.00625   3.30322
    R3        3.34853  -0.00016  -0.00078   0.00674   0.00596   3.35449
    R4        2.97431   0.00411   0.00012   0.00516   0.00529   2.97959
    R5        3.22280  -0.00007   0.00856  -0.03772  -0.02915   3.19365
    R6        1.83651   0.00258  -0.00021   0.00356   0.00335   1.83986
    R7        1.84124   0.00026  -0.00021   0.00098   0.00076   1.84200
    R8        1.86365   0.00659  -0.00024   0.01187   0.01163   1.87528
    R9        1.82663   0.00393   0.00010   0.00528   0.00537   1.83201
    A1        1.91807  -0.00145  -0.00043  -0.00211  -0.00265   1.91543
    A2        1.84317  -0.00312   0.00003  -0.01561  -0.01560   1.82757
    A3        2.11403   0.00334   0.00121   0.01164   0.01279   2.12682
    A4        1.67578  -0.00021   0.00026  -0.00631  -0.00610   1.66968
    A5        1.89284   0.00098  -0.00061   0.00901   0.00834   1.90118
    A6        1.96955  -0.00045  -0.00067  -0.00106  -0.00169   1.96786
    A7        2.30580  -0.00148   0.00033   0.00353   0.00386   2.30967
    A8        1.87614   0.00731   0.00103   0.02758   0.02861   1.90475
    A9        1.88707   0.00444   0.00115   0.01547   0.01662   1.90370
   A10        1.85106   0.00066   0.00055  -0.00027   0.00028   1.85134
   A11        2.91328   0.00219  -0.00339   0.02942   0.02603   2.93930
    D1       -2.06189  -0.00166   0.00118  -0.01335  -0.01218  -2.07407
    D2        2.43195   0.00046   0.00104   0.00127   0.00225   2.43420
    D3        0.16719   0.00139   0.00092   0.00863   0.00963   0.17682
    D4       -0.77881   0.00258   0.00045   0.01076   0.01120  -0.76761
    D5        1.12387  -0.00124   0.00049  -0.00939  -0.00888   1.11498
    D6       -3.12541  -0.00154  -0.00031  -0.01067  -0.01099  -3.13640
[...]
   122. RY*(  13) O   8                  0.00000     3.17838   
   123. RY*(   1) H   9                  0.00453     0.69910   
   124. RY*(   2) H   9                  0.00134     1.71972   
   125. RY*(   3) H   9                  0.00089     2.09373   
   126. RY*(   4) H   9                  0.00082     2.09933   
   127. RY*(   5) H   9                  0.00002     2.63799   
   128. RY*(   1) H  10                  0.00433     0.68791   
   129. RY*(   2) H  10                  0.00137     1.71264   
   130. RY*(   3) H  10                  0.00091     1.92007   
   131. RY*(   4) H  10                  0.00075     2.26533   
   132. RY*(   5) H  10                  0.00002     2.65015   
   139. BD*(   1) O   8 - H   9          0.01938     0.61767   
   140. BD*(   1) O   8 - H  10          0.01476     0.61679   
       -------------------------------
              Total Lewis    9.98545  ( 99.5051%)
        Valence non-Lewis    0.03414  (  0.3402%)
        Rydberg non-Lewis    0.01553  (  0.1547%)
       -------------------------------
            Total unit  2   10.03511  (100.0000%)
           Charge unit  2   -0.03511
 1\1\GINC-BLADI36\SP\RB3LYP\6-311G(d,p)\H4O5P1(1-)\SARARIOP\21-Jun-2017
 \0\\# B3LYP/6-311G** geom=check guess=read pop=nboread\\Title Card Req
 uired\\-1,1\P,0,-2.4790444927,0.4116881796,-0.0755972464\O,0,-1.831526
 699,0.0236641947,1.3371146609\O,0,-3.604190905,1.7263778403,0.10062446
 39\H,0,-4.1883175037,1.580980474,0.8646931567\O,0,-3.6837714512,-0.839
 6838457,-0.4051394486\H,0,-3.3505947548,-1.7011576199,-0.0967102873\O,
 0,-1.5715106425,0.7204130311,-1.3383492146\O,0,0.8190348808,0.16780527
 37,0.2486249536\H,0,0.1207285519,0.0541326459,0.9279916969\H,0,0.32542
 63164,0.4326871262,-0.554089735\\Version=AM64L-G09RevD.01\State=1-A\HF
 =-720.1788747\RMSD=9.772e-09\Dipole=-1.6422315,-0.4741863,0.5164334\Qu
 adrupole=-7.1741109,6.5917755,0.5823354,0.7399467,-3.9602079,2.0022766
 \PG=C01 [X(H4O5P1)]\\@


 UNDER MOST GREENE GRASSE LY MOST GREATE SNAKES.
 -- PROVERBS AND REASONS OF THE YEAR 1585
           AS REPRINTED IN PAISLEY MAGAZINE 1828.
 Job cpu time:       0 days  0 hours  6 minutes 29.2 seconds.
 File lengths (MBytes):  RWF=      9 Int=      0 D2E=      0 Chk=      4 Scr=      1
 Normal termination of Gaussian 09 at Wed Jun 21 04:59:35 2017.
 Initial command:
 /usr/local/gaussian/gaussian09.d1/g09/l1.exe "/scratch/sarariop/H3PO4-h2o-A.com/Gau-19976.inp" -scrdir="/scratch/sarariop/H3PO4-h2o-A.com/"
 Default is to use a total of   8 processors:
                                8 via shared-memory
                                1 via Linda
 Entering Link 1 = /usr/local/gaussian/gaussian09.d1/g09/l1.exe PID=     23225.
  
 Copyright (c) 1988,1990,1992,1993,1995,1998,2003,2009,2013,
            Gaussian, Inc.  All Rights Reserved.
  
 This is part of the Gaussian(R) 09 program.  It is based on
 the Gaussian(R) 03 system (copyright 2003, Gaussian, Inc.),
 the Gaussian(R) 98 system (copyright 1998, Gaussian, Inc.),
 the Gaussian(R) 94 system (copyright 1995, Gaussian, Inc.),
 the Gaussian 92(TM) system (copyright 1992, Gaussian, Inc.),
 the Gaussian 90(TM) system (copyright 1990, Gaussian, Inc.),
 the Gaussian 88(TM) system (copyright 1988, Gaussian, Inc.),
 the Gaussian 86(TM) system (copyright 1986, Carnegie Mellon
 University), and the Gaussian 82(TM) system (copyright 1983,
 Carnegie Mellon University). Gaussian is a federally registered
 trademark of Gaussian, Inc.
  
 This software contains proprietary and confidential information,
 including trade secrets, belonging to Gaussian, Inc.
  
 This software is provided under written license and may be
 used, copied, transmitted, or stored only in accord with that
 written license.
  
 The following legend is applicable only to US Government
 contracts under FAR:
  
                    RESTRICTED RIGHTS LEGEND
  
 Use, reproduction and disclosure by the US Government is
 subject to restrictions as set forth in subparagraphs (a)
 and (c) of the Commercial Computer Software - Restricted
 Rights clause in FAR 52.227-19.
  
 Gaussian, Inc.
 340 Quinnipiac St., Bldg. 40, Wallingford CT 06492
  
  
 ---------------------------------------------------------------
 Warning -- This program may not be used in any manner that
 competes with the business of Gaussian, Inc. or will provide
 assistance to any competitor of Gaussian, Inc.  The licensee
 of this program is prohibited from giving any competitor of
 Gaussian, Inc. access to this program.  By using this program,
 the user acknowledges that Gaussian, Inc. is engaged in the
 business of creating and licensing software in the field of
 computational chemistry and represents and warrants to the
 licensee that it is not a competitor of Gaussian, Inc. and that
 it will not use this program in any manner prohibited above.
 ---------------------------------------------------------------
  

 Cite this work as:
 Gaussian 09, Revision D.01,
 M. J. Frisch, G. W. Trucks, H. B. Schlegel, G. E. Scuseria, 
 M. A. Robb, J. R. Cheeseman, G. Scalmani, V. Barone, B. Mennucci, 
 G. A. Petersson, H. Nakatsuji, M. Caricato, X. Li, H. P. Hratchian, 
 A. F. Izmaylov, J. Bloino, G. Zheng, J. L. Sonnenberg, M. Hada, 
 M. Ehara, K. Toyota, R. Fukuda, J. Hasegawa, M. Ishida, T. Nakajima, 
 Y. Honda, O. Kitao, H. Nakai, T. Vreven, J. A. Montgomery, Jr., 
 J. E. Peralta, F. Ogliaro, M. Bearpark, J. J. Heyd, E. Brothers, 
 K. N. Kudin, V. N. Staroverov, T. Keith, R. Kobayashi, J. Normand, 
 K. Raghavachari, A. Rendell, J. C. Burant, S. S. Iyengar, J. Tomasi, 
 M. Cossi, N. Rega, J. M. Millam, M. Klene, J. E. Knox, J. B. Cross, 
 V. Bakken, C. Adamo, J. Jaramillo, R. Gomperts, R. E. Stratmann, 
 O. Yazyev, A. J. Austin, R. Cammi, C. Pomelli, J. W. Ochterski, 
 R. L. Martin, K. Morokuma, V. G. Zakrzewski, G. A. Voth, 
 P. Salvador, J. J. Dannenberg, S. Dapprich, A. D. Daniels, 
 O. Farkas, J. B. Foresman, J. V. Ortiz, J. Cioslowski, 
 and D. J. Fox, Gaussian, Inc., Wallingford CT, 2013.
 
 ******************************************
 Gaussian 09:  AM64L-G09RevD.01 24-Apr-2013
                21-Jun-2017 
 ******************************************
 %chk=H3PO4-h2o-A.chk
 Default route:  MaxDisk=56GB
 -------------------------------------------------
 # B3LYP/6-311G** geom=check guess=read output=wfx
 -------------------------------------------------
 1/29=2,38=1/1;
 2/12=2,40=1/2;
 3/5=4,6=6,7=101,11=2,14=-4,16=1,25=1,30=1,74=-5,116=-2/1,2,3;
 4/5=1/1;
 5/5=2,38=6/2;
 6/7=2,8=2,9=2,10=2,28=1/1;
 99/5=1,6=200,9=1/99;
 -------------------
 Title Card Required
 -------------------
 Structure from the checkpoint file:  "H3PO4-h2o-A.chk"
 Charge = -1 Multiplicity = 1
 Redundant internal coordinates found in file.
 P,0,-2.4790444927,0.4116881796,-0.0755972464
 O,0,-1.831526699,0.0236641947,1.3371146609
 O,0,-3.604190905,1.7263778403,0.1006244639
 H,0,-4.1883175037,1.580980474,0.8646931567
 O,0,-3.6837714512,-0.8396838457,-0.4051394486
 H,0,-3.3505947548,-1.7011576199,-0.0967102873
 O,0,-1.5715106425,0.7204130311,-1.3383492146
 O,0,0.8190348808,0.1678052737,0.2486249536
 H,0,0.1207285519,0.0541326459,0.9279916969
 H,0,0.3254263164,0.4326871262,-0.554089735
 Recover connectivity data from disk.
                          Input orientation:                          
 ---------------------------------------------------------------------
 Center     Atomic      Atomic             Coordinates (Angstroms)
 Number     Number       Type             X           Y           Z
 ---------------------------------------------------------------------
      1         15           0       -2.479044    0.411688   -0.075597
      2          8           0       -1.831527    0.023664    1.337115
      3          8           0       -3.604191    1.726378    0.100624
      4          1           0       -4.188318    1.580980    0.864693
      5          8           0       -3.683771   -0.839684   -0.405139
      6          1           0       -3.350595   -1.701158   -0.096710
      7          8           0       -1.571511    0.720413   -1.338349
      8          8           0        0.819035    0.167805    0.248625
      9          1           0        0.120729    0.054133    0.927992
     10          1           0        0.325426    0.432687   -0.554090
 ---------------------------------------------------------------------
                    Distance matrix (angstroms):
                    1          2          3          4          5
     1  P    0.000000
     2  O    1.601748   0.000000
     3  O    1.739373   2.751451   0.000000
     4  H    2.274424   2.864067   0.972700   0.000000
     5  O    1.768021   2.685448   2.616640   2.779687   0.000000
     6  H    2.285643   2.708954   3.442565   3.521151   0.973793
     7  O    1.585393   2.776900   2.685963   3.527272   2.786831
     8  O    3.322939   2.868983   4.692119   5.239292   4.660226
     9  H    2.809601   1.994896   4.166049   4.571996   4.129209
    10  H    2.845075   2.897654   4.188577   4.868820   4.208893
                    6          7          8          9         10
     6  H    0.000000
     7  O    3.251279   0.000000
     8  O    4.582367   2.922083   0.000000
     9  H    4.022579   2.905840   0.980863   0.000000
    10  H    4.274999   2.072732   0.978858   1.543298   0.000000
 Stoichiometry    H4O5P(1-)
 Framework group  C1[X(H4O5P)]
 Deg. of freedom    24
 Full point group                 C1      NOp   1
 Largest Abelian subgroup         C1      NOp   1
 Largest concise Abelian subgroup C1      NOp   1
                         Standard orientation:                         
 ---------------------------------------------------------------------
 Center     Atomic      Atomic             Coordinates (Angstroms)
 Number     Number       Type             X           Y           Z
 ---------------------------------------------------------------------
      1         15           0        0.396457    0.048320    0.021066
      2          8           0       -0.367664   -0.899364   -1.019901
      3          8           0        1.585954    1.024428   -0.789938
      4          1           0        2.107074    0.488033   -1.411919
      5          8           0        1.541335   -1.000993    0.866106
      6          1           0        1.135668   -1.874180    1.011886
      7          8           0       -0.402976    0.989974    1.014880
      8          8           0       -2.924735   -0.033907   -0.048592
      9          1           0       -2.282238   -0.512538   -0.614457
     10          1           0       -2.362663    0.532778    0.518069
 ---------------------------------------------------------------------
 Rotational constants (GHZ):      4.0546903      1.6866705      1.6426580
 Standard basis: 6-311G(d,p) (5D, 7F)
 There are   146 symmetry adapted cartesian basis functions of A   symmetry.
 There are   140 symmetry adapted basis functions of A   symmetry.
   140 basis functions,   238 primitive gaussians,   146 cartesian basis functions
    30 alpha electrons       30 beta electrons
       nuclear repulsion energy       335.9941950118 Hartrees.
 NAtoms=   10 NActive=   10 NUniq=   10 SFac= 1.00D+00 NAtFMM=   60 NAOKFM=F Big=F
 Integral buffers will be    131072 words long.
 Raffenetti 2 integral format.
 Two-electron integral symmetry is turned on.
 One-electron integrals computed using PRISM.
 NBasis=   140 RedAO= T EigKep=  1.16D-02  NBF=   140
 NBsUse=   140 1.00D-06 EigRej= -1.00D+00 NBFU=   140
 Initial guess from the checkpoint file:  "H3PO4-h2o-A.chk"
 B after Tr=     0.000000    0.000000    0.000000
         Rot=    1.000000    0.000000    0.000000    0.000000 Ang=   0.00 deg.
 Keep R1 ints in memory in canonical form, NReq=50386328.
 Requested convergence on RMS density matrix=1.00D-08 within 128 cycles.
 Requested convergence on MAX density matrix=1.00D-06.
 Requested convergence on             energy=1.00D-06.
 No special actions if energy rises.
 SCF Done:  E(RB3LYP) =  -720.178874716     A.U. after    1 cycles
            NFock=  1  Conv=0.66D-08     -V/T= 2.0028

 **********************************************************************

            Population analysis using the SCF density.

 **********************************************************************

 Orbital symmetries:
       Occupied  (A) (A) (A) (A) (A) (A) (A) (A) (A) (A) (A) (A)
                 (A) (A) (A) (A) (A) (A) (A) (A) (A) (A) (A) (A)
                 (A) (A) (A) (A) (A) (A)
       Virtual   (A) (A) (A) (A) (A) (A) (A) (A) (A) (A) (A) (A)
                 (A) (A) (A) (A) (A) (A) (A) (A) (A) (A) (A) (A)
                 (A) (A) (A) (A) (A) (A) (A) (A) (A) (A) (A) (A)
                 (A) (A) (A) (A) (A) (A) (A) (A) (A) (A) (A) (A)
                 (A) (A) (A) (A) (A) (A) (A) (A) (A) (A) (A) (A)
                 (A) (A) (A) (A) (A) (A) (A) (A) (A) (A) (A) (A)
                 (A) (A) (A) (A) (A) (A) (A) (A) (A) (A) (A) (A)
                 (A) (A) (A) (A) (A) (A) (A) (A) (A) (A) (A) (A)
                 (A) (A) (A) (A) (A) (A) (A) (A) (A) (A) (A) (A)
                 (A) (A)
 The electronic state is 1-A.
 Alpha  occ. eigenvalues --  -77.01742 -18.97941 -18.97346 -18.90739 -18.90399
 Alpha  occ. eigenvalues --  -18.89926  -6.49173  -4.65555  -4.65427  -4.65149
 Alpha  occ. eigenvalues --   -0.87399  -0.83689  -0.79566  -0.77158  -0.74069
 Alpha  occ. eigenvalues --   -0.43222  -0.35612  -0.31805  -0.29130  -0.24925
 Alpha  occ. eigenvalues --   -0.22922  -0.20370  -0.19291  -0.18161  -0.16447
 Alpha  occ. eigenvalues --   -0.12655  -0.12167  -0.10350  -0.10143  -0.09345
 Alpha virt. eigenvalues --    0.15359   0.19416   0.24037   0.27449   0.27858
 Alpha virt. eigenvalues --    0.28188   0.29420   0.35138   0.36026   0.40786
 Alpha virt. eigenvalues --    0.42778   0.52685   0.54307   0.55269   0.58544
 Alpha virt. eigenvalues --    0.61447   0.76519   0.77874   0.89508   0.91135
 Alpha virt. eigenvalues --    0.93616   0.95124   0.97186   0.98961   1.00042
 Alpha virt. eigenvalues --    1.04014   1.05486   1.05788   1.08387   1.10380
 Alpha virt. eigenvalues --    1.14411   1.15049   1.16756   1.18548   1.20479
 Alpha virt. eigenvalues --    1.24344   1.32464   1.36599   1.37263   1.45791
 Alpha virt. eigenvalues --    1.48724   1.50721   1.51509   1.58007   1.64211
 Alpha virt. eigenvalues --    1.66731   1.69427   1.73891   1.78288   1.85889
 Alpha virt. eigenvalues --    1.87486   1.93704   2.09899   2.11161   2.22760
 Alpha virt. eigenvalues --    2.33534   2.50031   2.54173   2.56335   2.69451
 Alpha virt. eigenvalues --    2.96950   2.99022   3.03129   3.03497   3.06002
 Alpha virt. eigenvalues --    3.06480   3.09468   3.11003   3.15192   3.16566
 Alpha virt. eigenvalues --    3.24629   3.25167   3.25471   3.26106   3.29606
 Alpha virt. eigenvalues --    3.30828   3.33756   3.39417   3.52144   3.56266
 Alpha virt. eigenvalues --    3.61781   3.78985   3.86846   3.90561   4.02672
 Alpha virt. eigenvalues --    4.91386   4.95336   4.96205   4.97342   4.99161
 Alpha virt. eigenvalues --    5.01958   5.03193   5.11958   5.15561   5.22632
 Alpha virt. eigenvalues --    5.24059   5.41611   5.54880   5.57264   5.81318
 Alpha virt. eigenvalues --    7.05103  13.93944  14.02477  14.08636  49.93861
 Alpha virt. eigenvalues --   49.95113  49.97180  50.04692  50.07685 163.04102
          Condensed to atoms (all electrons):
               1          2          3          4          5          6
     1  P   12.528646   0.440147   0.230245  -0.019771   0.226354  -0.028713
     2  O    0.440147   8.343325  -0.025399   0.000612  -0.032407   0.005445
     3  O    0.230245  -0.025399   8.130415   0.292059  -0.028520   0.000269
     4  H   -0.019771   0.000612   0.292059   0.472378  -0.000913  -0.000718
     5  O    0.226354  -0.032407  -0.028520  -0.000913   8.163412   0.296977
     6  H   -0.028713   0.005445   0.000269  -0.000718   0.296977   0.468311
     7  O    0.472997  -0.025115  -0.024865   0.000131  -0.023328  -0.001258
     8  O    0.004619  -0.013356  -0.000019   0.000010  -0.000027  -0.000136
     9  H   -0.001881   0.044355  -0.000087  -0.000063  -0.000047  -0.000119
    10  H   -0.001717  -0.003220   0.000000  -0.000055  -0.000278  -0.000151
               7          8          9         10
     1  P    0.472997   0.004619  -0.001881  -0.001717
     2  O   -0.025115  -0.013356   0.044355  -0.003220
     3  O   -0.024865  -0.000019  -0.000087   0.000000
     4  H    0.000131   0.000010  -0.000063  -0.000055
     5  O   -0.023328  -0.000027  -0.000047  -0.000278
     6  H   -0.001258  -0.000136  -0.000119  -0.000151
     7  O    8.261244  -0.010568  -0.002791   0.038529
     8  O   -0.010568   7.930540   0.333197   0.333690
     9  H   -0.002791   0.333197   0.433239  -0.060310
    10  H    0.038529   0.333690  -0.060310   0.440883
 Mulliken charges:
               1
     1  P    1.149075
     2  O   -0.734386
     3  O   -0.574098
     4  H    0.256330
     5  O   -0.601224
     6  H    0.260092
     7  O   -0.684975
     8  O   -0.577950
     9  H    0.254508
    10  H    0.252628
 Sum of Mulliken charges =  -1.00000
 Mulliken charges with hydrogens summed into heavy atoms:
               1
     1  P    1.149075
     2  O   -0.734386
     3  O   -0.317768
     5  O   -0.341132
     7  O   -0.684975
     8  O   -0.070813
 Electronic spatial extent (au):  <R**2>=            815.4270
 Charge=             -1.0000 electrons
 Dipole moment (field-independent basis, Debye):
    X=              3.9938    Y=             -2.0346    Z=             -0.7136  Tot=              4.5386
 Quadrupole moment (field-independent basis, Debye-Ang):
   XX=            -63.5742   YY=            -47.8687   ZZ=            -48.1018
   XY=             -2.2269   XZ=             -4.1686   YZ=             -4.4078
 Traceless Quadrupole moment (field-independent basis, Debye-Ang):
   XX=            -10.3926   YY=              5.3129   ZZ=              5.0798
   XY=             -2.2269   XZ=             -4.1686   YZ=             -4.4078
 Octapole moment (field-independent basis, Debye-Ang**2):
  XXX=             53.8477  YYY=            -14.2893  ZZZ=             -4.7162  XYY=             -2.0044
  XXY=              0.9691  XXZ=             -9.4131  XZZ=              3.2770  YZZ=             -1.9032
  YYZ=              6.1022  XYZ=              0.6533
 Hexadecapole moment (field-independent basis, Debye-Ang**3):
 XXXX=           -799.7266 YYYY=           -182.4450 ZZZZ=           -180.9385 XXXY=             -2.3128
 XXXZ=            -31.6062 YYYX=            -15.5490 YYYZ=            -15.8314 ZZZX=            -12.8157
 ZZZY=            -10.4342 XXYY=           -135.0599 XXZZ=           -115.2208 YYZZ=            -64.1935
 XXYZ=             10.6771 YYXZ=              6.4996 ZZXY=              0.6161
 N-N= 3.359941950118D+02 E-N=-2.392513008793D+03  KE= 7.181613081804D+02
 1\1\GINC-BLADI36\SP\RB3LYP\6-311G(d,p)\H4O5P1(1-)\SARARIOP\21-Jun-2017
 \0\\# B3LYP/6-311G** geom=check guess=read output=wfx\\Title Card Requ
 ired\\-1,1\P,0,-2.4790444927,0.4116881796,-0.0755972464\O,0,-1.8315266
 99,0.0236641947,1.3371146609\O,0,-3.604190905,1.7263778403,0.100624463
 9\H,0,-4.1883175037,1.580980474,0.8646931567\O,0,-3.6837714512,-0.8396
 838457,-0.4051394486\H,0,-3.3505947548,-1.7011576199,-0.0967102873\O,0
 ,-1.5715106425,0.7204130311,-1.3383492146\O,0,0.8190348808,0.167805273
 7,0.2486249536\H,0,0.1207285519,0.0541326459,0.9279916969\H,0,0.325426
 3164,0.4326871262,-0.554089735\\Version=AM64L-G09RevD.01\State=1-A\HF=
 -720.1788747\RMSD=6.616e-09\Dipole=-1.6422303,-0.4741889,0.5164336\Qua
 drupole=-7.1741108,6.5917699,0.5823409,0.7399529,-3.9602102,2.0022767\
 PG=C01 [X(H4O5P1)]\\@

 Writing a WFNX file to "H3PO4-h2o-A.wfx"


 ALL THINGS ARE POSSIBLE EXCEPT SKIING THROUGH A REVOLVING DOOR.
 Job cpu time:       0 days  0 hours  0 minutes 55.2 seconds.
 File lengths (MBytes):  RWF=      9 Int=      0 D2E=      0 Chk=      4 Scr=      1
 Normal termination of Gaussian 09 at Wed Jun 21 04:59:45 2017.
