 Entering Gaussian System, Link 0=g09
 Initial command:
 /usr/local/gaussian/gaussian09.d1/g09/l1.exe "/scratch/sarariop/H3PO42.com/Gau-5790.inp" -scrdir="/scratch/sarariop/H3PO42.com/"
 Default is to use a total of   8 processors:
                                8 via shared-memory
                                1 via Linda
 Entering Link 1 = /usr/local/gaussian/gaussian09.d1/g09/l1.exe PID=      5791.
  
 Copyright (c) 1988,1990,1992,1993,1995,1998,2003,2009,2013,
            Gaussian, Inc.  All Rights Reserved.
  
 This is part of the Gaussian(R) 09 program.  It is based on
 the Gaussian(R) 03 system (copyright 2003, Gaussian, Inc.),
 the Gaussian(R) 98 system (copyright 1998, Gaussian, Inc.),
 the Gaussian(R) 94 system (copyright 1995, Gaussian, Inc.),
 the Gaussian 92(TM) system (copyright 1992, Gaussian, Inc.),
 the Gaussian 90(TM) system (copyright 1990, Gaussian, Inc.),
 the Gaussian 88(TM) system (copyright 1988, Gaussian, Inc.),
 the Gaussian 86(TM) system (copyright 1986, Carnegie Mellon
 University), and the Gaussian 82(TM) system (copyright 1983,
 Carnegie Mellon University). Gaussian is a federally registered
 trademark of Gaussian, Inc.
  
 This software contains proprietary and confidential information,
 including trade secrets, belonging to Gaussian, Inc.
  
 This software is provided under written license and may be
 used, copied, transmitted, or stored only in accord with that
 written license.
  
 The following legend is applicable only to US Government
 contracts under FAR:
  
                    RESTRICTED RIGHTS LEGEND
  
 Use, reproduction and disclosure by the US Government is
 subject to restrictions as set forth in subparagraphs (a)
 and (c) of the Commercial Computer Software - Restricted
 Rights clause in FAR 52.227-19.
  
 Gaussian, Inc.
 340 Quinnipiac St., Bldg. 40, Wallingford CT 06492
  
  
 ---------------------------------------------------------------
 Warning -- This program may not be used in any manner that
 competes with the business of Gaussian, Inc. or will provide
 assistance to any competitor of Gaussian, Inc.  The licensee
 of this program is prohibited from giving any competitor of
 Gaussian, Inc. access to this program.  By using this program,
 the user acknowledges that Gaussian, Inc. is engaged in the
 business of creating and licensing software in the field of
 computational chemistry and represents and warrants to the
 licensee that it is not a competitor of Gaussian, Inc. and that
 it will not use this program in any manner prohibited above.
 ---------------------------------------------------------------
  

 Cite this work as:
 Gaussian 09, Revision D.01,
 M. J. Frisch, G. W. Trucks, H. B. Schlegel, G. E. Scuseria, 
 M. A. Robb, J. R. Cheeseman, G. Scalmani, V. Barone, B. Mennucci, 
 G. A. Petersson, H. Nakatsuji, M. Caricato, X. Li, H. P. Hratchian, 
 A. F. Izmaylov, J. Bloino, G. Zheng, J. L. Sonnenberg, M. Hada, 
 M. Ehara, K. Toyota, R. Fukuda, J. Hasegawa, M. Ishida, T. Nakajima, 
 Y. Honda, O. Kitao, H. Nakai, T. Vreven, J. A. Montgomery, Jr., 
 J. E. Peralta, F. Ogliaro, M. Bearpark, J. J. Heyd, E. Brothers, 
 K. N. Kudin, V. N. Staroverov, T. Keith, R. Kobayashi, J. Normand, 
 K. Raghavachari, A. Rendell, J. C. Burant, S. S. Iyengar, J. Tomasi, 
 M. Cossi, N. Rega, J. M. Millam, M. Klene, J. E. Knox, J. B. Cross, 
 V. Bakken, C. Adamo, J. Jaramillo, R. Gomperts, R. E. Stratmann, 
 O. Yazyev, A. J. Austin, R. Cammi, C. Pomelli, J. W. Ochterski, 
 R. L. Martin, K. Morokuma, V. G. Zakrzewski, G. A. Voth, 
 P. Salvador, J. J. Dannenberg, S. Dapprich, A. D. Daniels, 
 O. Farkas, J. B. Foresman, J. V. Ortiz, J. Cioslowski, 
 and D. J. Fox, Gaussian, Inc., Wallingford CT, 2013.
 
 ******************************************
 Gaussian 09:  AM64L-G09RevD.01 24-Apr-2013
                20-Jun-2017 
 ******************************************
 %chk=H3PO42.chk
 Default route:  MaxDisk=56GB
 -------------------------------------------
 # B3LYP/6-311G** opt freq geom=connectivity
 -------------------------------------------
 1/14=-1,18=20,19=15,26=3,38=1,57=2/1,3;
 2/9=110,12=2,17=6,18=5,40=1/2;
 3/5=4,6=6,7=101,11=2,16=1,25=1,30=1,71=1,74=-5/1,2,3;
 4//1;
 5/5=2,38=5/2;
 6/7=2,8=2,9=2,10=2,28=1/1;
 7//1,2,3,16;
 1/14=-1,18=20,19=15,26=3/3(2);
 2/9=110/2;
 99//99;
 2/9=110/2;
 3/5=4,6=6,7=101,11=2,16=1,25=1,30=1,71=1,74=-5/1,2,3;
 4/5=5,16=3,69=1/1;
 5/5=2,38=5/2;
 7//1,2,3,16;
 1/14=-1,18=20,19=15,26=3/3(-5);
 2/9=110/2;
 6/7=2,8=2,9=2,10=2,19=2,28=1/1;
 99/9=1/99;
 -------------------
 Title Card Required
 -------------------
 Symbolic Z-matrix:
 Charge =  0 Multiplicity = 1
 P                    -0.97712  -0.74181  -1.10227 
 O                    -0.40711   0.06428  -2.49848 
 O                    -0.40711   0.06428   0.29394 
 H                     0.49829   0.35003   0.15181 
 O                    -0.40714  -2.35402  -1.10227 
 H                    -0.68181  -2.79102  -1.91171 
 O                    -2.68712  -0.74179  -1.10227 
 H                    -3.00758   0.16162  -1.15481 
 

 GradGradGradGradGradGradGradGradGradGradGradGradGradGradGradGradGradGrad
 Berny optimization.
 Initialization pass.
                           ----------------------------
                           !    Initial Parameters    !
                           ! (Angstroms and Degrees)  !
 --------------------------                            --------------------------
 ! Name  Definition              Value          Derivative Info.                !
 --------------------------------------------------------------------------------
 ! R1    R(1,2)                  1.71           estimate D2E/DX2                !
 ! R2    R(1,3)                  1.71           estimate D2E/DX2                !
 ! R3    R(1,5)                  1.71           estimate D2E/DX2                !
 ! R4    R(1,7)                  1.71           estimate D2E/DX2                !
 ! R5    R(3,4)                  0.96           estimate D2E/DX2                !
 ! R6    R(5,6)                  0.96           estimate D2E/DX2                !
 ! R7    R(7,8)                  0.96           estimate D2E/DX2                !
 ! A1    A(2,1,3)              109.4713         estimate D2E/DX2                !
 ! A2    A(2,1,5)              109.4712         estimate D2E/DX2                !
 ! A3    A(2,1,7)              109.4712         estimate D2E/DX2                !
 ! A4    A(3,1,5)              109.4712         estimate D2E/DX2                !
 ! A5    A(3,1,7)              109.4712         estimate D2E/DX2                !
 ! A6    A(5,1,7)              109.4712         estimate D2E/DX2                !
 ! A7    A(1,3,4)              109.5            estimate D2E/DX2                !
 ! A8    A(1,5,6)              109.5            estimate D2E/DX2                !
 ! A9    A(1,7,8)              109.5012         estimate D2E/DX2                !
 ! D1    D(2,1,3,4)            -39.3902         estimate D2E/DX2                !
 ! D2    D(5,1,3,4)             80.6098         estimate D2E/DX2                !
 ! D3    D(7,1,3,4)           -159.3902         estimate D2E/DX2                !
 ! D4    D(2,1,5,6)            -56.5599         estimate D2E/DX2                !
 ! D5    D(3,1,5,6)           -176.5599         estimate D2E/DX2                !
 ! D6    D(7,1,5,6)             63.4401         estimate D2E/DX2                !
 ! D7    D(2,1,7,8)            -56.6714         estimate D2E/DX2                !
 ! D8    D(3,1,7,8)             63.3286         estimate D2E/DX2                !
 ! D9    D(5,1,7,8)           -176.6714         estimate D2E/DX2                !
 --------------------------------------------------------------------------------
 Trust Radius=3.00D-01 FncErr=1.00D-07 GrdErr=1.00D-06
 Number of steps in this run=     35 maximum allowed number of steps=    100.
 GradGradGradGradGradGradGradGradGradGradGradGradGradGradGradGradGradGrad

                          Input orientation:                          
 ---------------------------------------------------------------------
 Center     Atomic      Atomic             Coordinates (Angstroms)
 Number     Number       Type             X           Y           Z
 ---------------------------------------------------------------------
      1         15           0       -0.977116   -0.741812   -1.102271
      2          8           0       -0.407106    0.064282   -2.498480
      3          8           0       -0.407106    0.064282    0.293939
      4          1           0        0.498293    0.350028    0.151806
      5          8           0       -0.407136   -2.354022   -1.102271
      6          1           0       -0.681809   -2.791022   -1.911706
      7          8           0       -2.687116   -0.741791   -1.102271
      8          1           0       -3.007579    0.161616   -1.154813
 ---------------------------------------------------------------------
                    Distance matrix (angstroms):
                    1          2          3          4          5
     1  P    0.000000
     2  O    1.710000   0.000000
     3  O    1.710000   2.792419   0.000000
     4  H    2.222983   2.815211   0.960000   0.000000
     5  O    1.710000   2.792418   2.792418   3.115188   0.000000
     6  H    2.222983   2.927888   3.618438   3.939152   0.960000
     7  O    1.710000   2.792418   2.792418   3.593273   2.792418
     8  H    2.222998   2.928715   2.978391   3.746183   3.618494
                    6          7          8
     6  H    0.000000
     7  O    2.979227   0.000000
     8  H    3.834079   0.960000   0.000000
 Stoichiometry    H3O4P
 Framework group  C1[X(H3O4P)]
 Deg. of freedom    18
 Full point group                 C1      NOp   1
 Largest Abelian subgroup         C1      NOp   1
 Largest concise Abelian subgroup C1      NOp   1
                         Standard orientation:                         
 ---------------------------------------------------------------------
 Center     Atomic      Atomic             Coordinates (Angstroms)
 Number     Number       Type             X           Y           Z
 ---------------------------------------------------------------------
      1         15           0        0.002455   -0.003064    0.008616
      2          8           0       -0.062076   -0.078110    1.715749
      3          8           0       -1.430630   -0.668030   -0.645745
      4          1           0       -1.687713   -1.439763   -0.135904
      5          8           0        1.351045   -0.893451   -0.550505
      6          1           0        2.150696   -0.554606   -0.141432
      7          8           0        0.151480    1.627334   -0.485036
      8          1           0       -0.578361    2.138388   -0.127606
 ---------------------------------------------------------------------
 Rotational constants (GHZ):      3.8347071      3.8098004      3.6201900
 Standard basis: 6-311G(d,p) (5D, 7F)
 There are   121 symmetry adapted cartesian basis functions of A   symmetry.
 There are   116 symmetry adapted basis functions of A   symmetry.
   116 basis functions,   198 primitive gaussians,   121 cartesian basis functions
    25 alpha electrons       25 beta electrons
       nuclear repulsion energy       257.7805897336 Hartrees.
 NAtoms=    8 NActive=    8 NUniq=    8 SFac= 1.00D+00 NAtFMM=   60 NAOKFM=F Big=F
 Integral buffers will be    131072 words long.
 Raffenetti 2 integral format.
 Two-electron integral symmetry is turned on.
 One-electron integrals computed using PRISM.
 NBasis=   116 RedAO= T EigKep=  1.28D-02  NBF=   116
 NBsUse=   116 1.00D-06 EigRej= -1.00D+00 NBFU=   116
 ExpMin= 6.85D-02 ExpMax= 7.75D+04 ExpMxC= 2.65D+03 IAcc=2 IRadAn=         4 AccDes= 0.00D+00
 Harris functional with IExCor=  402 and IRadAn=       4 diagonalized for initial guess.
 HarFok:  IExCor=  402 AccDes= 0.00D+00 IRadAn=         4 IDoV= 1 UseB2=F ITyADJ=14
 ICtDFT=  3500011 ScaDFX=  1.000000  1.000000  1.000000  1.000000
 FoFCou: FMM=F IPFlag=           0 FMFlag=      100000 FMFlg1=           0
         NFxFlg=           0 DoJE=T BraDBF=F KetDBF=T FulRan=T
         wScrn=  0.000000 ICntrl=     500 IOpCl=  0 I1Cent=   200000004 NGrid=           0
         NMat0=    1 NMatS0=      1 NMatT0=    0 NMatD0=    1 NMtDS0=    0 NMtDT0=    0
 Petite list used in FoFCou.
 Keep R1 ints in memory in canonical form, NReq=24036422.
 Requested convergence on RMS density matrix=1.00D-08 within 128 cycles.
 Requested convergence on MAX density matrix=1.00D-06.
 Requested convergence on             energy=1.00D-06.
 No special actions if energy rises.
 Integral accuracy reduced to 1.0D-05 until final iterations.
 EnCoef did     5 forward-backward iterations
 EnCoef did     2 forward-backward iterations
 Initial convergence to 1.0D-05 achieved.  Increase integral accuracy.
 SCF Done:  E(RB3LYP) =  -644.195290393     A.U. after   16 cycles
            NFock= 16  Conv=0.46D-08     -V/T= 2.0032

 **********************************************************************

            Population analysis using the SCF density.

 **********************************************************************

 Orbital symmetries:
       Occupied  (A) (A) (A) (A) (A) (A) (A) (A) (A) (A) (A) (A)
                 (A) (A) (A) (A) (A) (A) (A) (A) (A) (A) (A) (A)
                 (A)
       Virtual   (A) (A) (A) (A) (A) (A) (A) (A) (A) (A) (A) (A)
                 (A) (A) (A) (A) (A) (A) (A) (A) (A) (A) (A) (A)
                 (A) (A) (A) (A) (A) (A) (A) (A) (A) (A) (A) (A)
                 (A) (A) (A) (A) (A) (A) (A) (A) (A) (A) (A) (A)
                 (A) (A) (A) (A) (A) (A) (A) (A) (A) (A) (A) (A)
                 (A) (A) (A) (A) (A) (A) (A) (A) (A) (A) (A) (A)
                 (A) (A) (A) (A) (A) (A) (A) (A) (A) (A) (A) (A)
                 (A) (A) (A) (A) (A) (A) (A)
 The electronic state is 1-A.
 Alpha  occ. eigenvalues --  -77.25372 -19.19428 -19.19390 -19.19315 -19.08584
 Alpha  occ. eigenvalues --   -6.72607  -4.88895  -4.88883  -4.88628  -1.09822
 Alpha  occ. eigenvalues --   -1.06067  -1.06033  -0.89919  -0.67910  -0.58030
 Alpha  occ. eigenvalues --   -0.57523  -0.48641  -0.44880  -0.44684  -0.40248
 Alpha  occ. eigenvalues --   -0.39146  -0.38838  -0.34815  -0.26931  -0.26817
 Alpha virt. eigenvalues --   -0.05843   0.02222   0.02242   0.05178   0.05803
 Alpha virt. eigenvalues --    0.08473   0.08865   0.18903   0.19713   0.20100
 Alpha virt. eigenvalues --    0.34043   0.34824   0.36929   0.38760   0.55209
 Alpha virt. eigenvalues --    0.55435   0.73019   0.73498   0.73812   0.80054
 Alpha virt. eigenvalues --    0.80315   0.80545   0.82887   0.83757   0.84127
 Alpha virt. eigenvalues --    0.88250   0.89095   0.91443   0.97468   0.98519
 Alpha virt. eigenvalues --    1.01058   1.18191   1.18836   1.22280   1.32116
 Alpha virt. eigenvalues --    1.32152   1.32441   1.41335   1.43998   1.45389
 Alpha virt. eigenvalues --    1.58704   1.62998   1.65264   1.66659   1.91611
 Alpha virt. eigenvalues --    1.93818   1.93863   2.35786   2.36382   2.37982
 Alpha virt. eigenvalues --    2.77696   2.79657   2.81574   2.87986   2.88029
 Alpha virt. eigenvalues --    2.89754   2.94277   2.95179   3.04708   3.05396
 Alpha virt. eigenvalues --    3.05475   3.05935   3.06649   3.06917   3.22827
 Alpha virt. eigenvalues --    3.22878   3.32448   3.65920   3.66577   3.72885
 Alpha virt. eigenvalues --    4.71278   4.72898   4.75277   4.76084   4.79580
 Alpha virt. eigenvalues --    4.80846   4.91939   4.92287   4.96706   5.37429
 Alpha virt. eigenvalues --    5.37742   5.38324   6.74768  13.74569  13.75115
 Alpha virt. eigenvalues --   13.75762  49.73211  49.73324  49.75620  49.85497
 Alpha virt. eigenvalues --  162.74318
          Condensed to atoms (all electrons):
               1          2          3          4          5          6
     1  P   12.668950   0.466563   0.247818  -0.022868   0.249274  -0.025313
     2  O    0.466563   8.239737  -0.025150  -0.000205  -0.024763  -0.002035
     3  O    0.247818  -0.025150   8.008051   0.319699  -0.014997  -0.001009
     4  H   -0.022868  -0.000205   0.319699   0.380653  -0.001083  -0.000175
     5  O    0.249274  -0.024763  -0.014997  -0.001083   7.993014   0.320906
     6  H   -0.025313  -0.002035  -0.001009  -0.000175   0.320906   0.387064
     7  O    0.247199  -0.024713  -0.015608  -0.000835  -0.015532  -0.000938
     8  H   -0.024428  -0.001488  -0.000857  -0.000295  -0.000860  -0.000231
               7          8
     1  P    0.247199  -0.024428
     2  O   -0.024713  -0.001488
     3  O   -0.015608  -0.000857
     4  H   -0.000835  -0.000295
     5  O   -0.015532  -0.000860
     6  H   -0.000938  -0.000231
     7  O    8.000061   0.320438
     8  H    0.320438   0.385437
 Mulliken charges:
               1
     1  P    1.192803
     2  O   -0.627946
     3  O   -0.517947
     4  H    0.325108
     5  O   -0.505960
     6  H    0.321730
     7  O   -0.510072
     8  H    0.322284
 Sum of Mulliken charges =   0.00000
 Mulliken charges with hydrogens summed into heavy atoms:
               1
     1  P    1.192803
     2  O   -0.627946
     3  O   -0.192839
     5  O   -0.184230
     7  O   -0.187788
 Electronic spatial extent (au):  <R**2>=            466.0868
 Charge=              0.0000 electrons
 Dipole moment (field-independent basis, Debye):
    X=             -0.1460    Y=              0.3198    Z=             -1.8145  Tot=              1.8482
 Quadrupole moment (field-independent basis, Debye-Ang):
   XX=            -29.0579   YY=            -30.9290   ZZ=            -46.2880
   XY=              0.0285   XZ=             -0.0090   YZ=              0.0231
 Traceless Quadrupole moment (field-independent basis, Debye-Ang):
   XX=              6.3671   YY=              4.4960   ZZ=            -10.8630
   XY=              0.0285   XZ=             -0.0090   YZ=              0.0231
 Octapole moment (field-independent basis, Debye-Ang**2):
  XXX=             13.3623  YYY=              5.8456  ZZZ=            -13.6666  XYY=            -15.3870
  XXY=             -5.0341  XXZ=              3.4714  XZZ=              0.8726  YZZ=              1.1059
  YYZ=              2.8651  XYZ=              0.2255
 Hexadecapole moment (field-independent basis, Debye-Ang**3):
 XXXX=           -138.0892 YYYY=           -147.2573 ZZZZ=           -194.2336 XXXY=              3.1206
 XXXZ=             -2.6085 YYYX=             -2.7498 YYYZ=              2.6208 ZZZX=              0.4056
 ZZZY=              0.4546 XXYY=            -47.7078 XXZZ=            -65.3071 YYZZ=            -64.1837
 XXYZ=             -2.9342 YYXZ=              2.1931 ZZXY=             -0.3201
 N-N= 2.577805897336D+02 E-N=-2.042693246101D+03  KE= 6.421106316403D+02
 Calling FoFJK, ICntrl=      2127 FMM=F ISym2X=0 I1Cent= 0 IOpClX= 0 NMat=1 NMatS=1 NMatT=0.
 ***** Axes restored to original set *****
 -------------------------------------------------------------------
 Center     Atomic                   Forces (Hartrees/Bohr)
 Number     Number              X              Y              Z
 -------------------------------------------------------------------
      1       15           0.048593067    0.067589228   -0.116789389
      2        8          -0.045911907   -0.064931186    0.114467460
      3        8          -0.037334468   -0.042293401   -0.028337357
      4        1           0.006374557    0.000959474   -0.006910730
      5        8          -0.026572852    0.051062317    0.027597126
      6        1          -0.002396771    0.000278513   -0.008177846
      7        8           0.056182049   -0.020705921    0.020345540
      8        1           0.001066325    0.008040978   -0.002194804
 -------------------------------------------------------------------
 Cartesian Forces:  Max     0.116789389 RMS     0.046676419

 GradGradGradGradGradGradGradGradGradGradGradGradGradGradGradGradGradGrad
 Berny optimization.
 FormGI is forming the generalized inverse of G from B-inverse, IUseBI=4.
 Internal  Forces:  Max     0.139375093 RMS     0.036008843
 Search for a local minimum.
 Step number   1 out of a maximum of   35
 All quantities printed in internal units (Hartrees-Bohrs-Radians)
 Mixed Optimization -- RFO/linear search
 Second derivative matrix not updated -- first step.
 ITU=  0
     Eigenvalues ---    0.01958   0.01958   0.01958   0.11175   0.13585
     Eigenvalues ---    0.13585   0.16000   0.16000   0.16000   0.22113
     Eigenvalues ---    0.22113   0.34713   0.34713   0.34713   0.34713
     Eigenvalues ---    0.55473   0.55473   0.55473
 RFO step:  Lambda=-8.28115202D-02 EMin= 1.95780423D-02
 Linear search not attempted -- first point.
 Maximum step size (   0.300) exceeded in Quadratic search.
    -- Step size scaled by   0.687
 Iteration  1 RMS(Cart)=  0.06946537 RMS(Int)=  0.00493103
 Iteration  2 RMS(Cart)=  0.00494044 RMS(Int)=  0.00125887
 Iteration  3 RMS(Cart)=  0.00000287 RMS(Int)=  0.00125887
 Iteration  4 RMS(Cart)=  0.00000001 RMS(Int)=  0.00125887
 Variable       Old X    -DE/DX   Delta X   Delta X   Delta X     New X
                                 (Linear)    (Quad)   (Total)
    R1        3.23143  -0.13938   0.00000  -0.22271  -0.22271   3.00872
    R2        3.23143  -0.05859   0.00000  -0.09362  -0.09362   3.13782
    R3        3.23143  -0.05806   0.00000  -0.09278  -0.09278   3.13865
    R4        3.23143  -0.05725   0.00000  -0.09148  -0.09148   3.13995
    R5        1.81414   0.00732   0.00000   0.00789   0.00789   1.82203
    R6        1.81414   0.00745   0.00000   0.00803   0.00803   1.82217
    R7        1.81414   0.00733   0.00000   0.00790   0.00790   1.82204
    A1        1.91063   0.01125   0.00000   0.04138   0.04194   1.95257
    A2        1.91063   0.01379   0.00000   0.04782   0.04842   1.95905
    A3        1.91063   0.01388   0.00000   0.04826   0.04884   1.95947
    A4        1.91063  -0.01249   0.00000  -0.04496  -0.04775   1.86289
    A5        1.91063  -0.01206   0.00000  -0.04385  -0.04667   1.86396
    A6        1.91063  -0.01438   0.00000  -0.04865  -0.05136   1.85927
    A7        1.91114  -0.01061   0.00000  -0.03001  -0.03001   1.88113
    A8        1.91114  -0.00683   0.00000  -0.01933  -0.01933   1.89181
    A9        1.91116  -0.00676   0.00000  -0.01913  -0.01913   1.89203
    D1       -0.68749   0.00084   0.00000   0.00520   0.00521  -0.68228
    D2        1.40691   0.01697   0.00000   0.06157   0.06003   1.46694
    D3       -2.78188  -0.01567   0.00000  -0.05240  -0.05087  -2.83276
    D4       -0.98716   0.00029   0.00000   0.00452   0.00453  -0.98263
    D5       -3.08155  -0.01429   0.00000  -0.04791  -0.04626  -3.12781
    D6        1.10724   0.01694   0.00000   0.06311   0.06145   1.16869
    D7       -0.98910   0.00154   0.00000   0.00823   0.00821  -0.98090
    D8        1.10529   0.01644   0.00000   0.06161   0.05999   1.16529
    D9       -3.08350  -0.01504   0.00000  -0.05009  -0.04845  -3.13195
         Item               Value     Threshold  Converged?
 Maximum Force            0.139375     0.000450     NO 
 RMS     Force            0.036009     0.000300     NO 
 Maximum Displacement     0.132445     0.001800     NO 
 RMS     Displacement     0.071612     0.001200     NO 
 Predicted change in Energy=-4.173440D-02
 GradGradGradGradGradGradGradGradGradGradGradGradGradGradGradGradGradGrad

                          Input orientation:                          
 ---------------------------------------------------------------------
 Center     Atomic      Atomic             Coordinates (Angstroms)
 Number     Number       Type             X           Y           Z
 ---------------------------------------------------------------------
      1         15           0       -0.957243   -0.713896   -1.149706
      2          8           0       -0.421894    0.040511   -2.445545
      3          8           0       -0.450528    0.023554    0.249056
      4          1           0        0.459332    0.313564    0.116072
      5          8           0       -0.433203   -2.288295   -1.077238
      6          1           0       -0.704787   -2.736900   -1.886420
      7          8           0       -2.617029   -0.765003   -1.091501
      8          1           0       -2.951322    0.138027   -1.140785
 ---------------------------------------------------------------------
                    Distance matrix (angstroms):
                    1          2          3          4          5
     1  P    0.000000
     2  O    1.592146   0.000000
     3  O    1.660460   2.694807   0.000000
     4  H    2.159757   2.722683   0.964176   0.000000
     5  O    1.660904   2.701062   2.665334   2.998379   0.000000
     6  H    2.167724   2.847220   3.499287   3.830205   0.964251
     7  O    1.661592   2.702019   2.666954   3.476426   2.662653
     8  H    2.168456   2.847791   2.863343   3.639102   3.497428
                    6          7          8
     6  H    0.000000
     7  O    2.859536   0.000000
     8  H    3.723989   0.964180   0.000000
 Stoichiometry    H3O4P
 Framework group  C1[X(H3O4P)]
 Deg. of freedom    18
 Full point group                 C1      NOp   1
 Largest Abelian subgroup         C1      NOp   1
 Largest concise Abelian subgroup C1      NOp   1
                         Standard orientation:                         
 ---------------------------------------------------------------------
 Center     Atomic      Atomic             Coordinates (Angstroms)
 Number     Number       Type             X           Y           Z
 ---------------------------------------------------------------------
      1         15           0       -0.001286   -0.006334    0.057666
      2          8           0       -0.115463   -0.107774    1.642470
      3          8           0       -1.397686   -0.495751   -0.695770
      4          1           0       -1.739887   -1.258301   -0.215092
      5          8           0        1.224250   -0.950808   -0.546182
      6          1           0        2.047209   -0.694220   -0.114116
      7          8           0        0.301836    1.545256   -0.453779
      8          1           0       -0.391528    2.120143   -0.109696
 ---------------------------------------------------------------------
 Rotational constants (GHZ):      4.1254931      4.0937655      3.9572124
 Standard basis: 6-311G(d,p) (5D, 7F)
 There are   121 symmetry adapted cartesian basis functions of A   symmetry.
 There are   116 symmetry adapted basis functions of A   symmetry.
   116 basis functions,   198 primitive gaussians,   121 cartesian basis functions
    25 alpha electrons       25 beta electrons
       nuclear repulsion energy       267.4745183875 Hartrees.
 NAtoms=    8 NActive=    8 NUniq=    8 SFac= 1.00D+00 NAtFMM=   60 NAOKFM=F Big=F
 Integral buffers will be    131072 words long.
 Raffenetti 2 integral format.
 Two-electron integral symmetry is turned on.
 One-electron integrals computed using PRISM.
 NBasis=   116 RedAO= T EigKep=  1.11D-02  NBF=   116
 NBsUse=   116 1.00D-06 EigRej= -1.00D+00 NBFU=   116
 Initial guess from the checkpoint file:  "H3PO42.chk"
 B after Tr=     0.000000    0.000000    0.000000
         Rot=    0.998865   -0.011615    0.013359    0.044209 Ang=  -5.46 deg.
 ExpMin= 6.85D-02 ExpMax= 7.75D+04 ExpMxC= 2.65D+03 IAcc=2 IRadAn=         4 AccDes= 0.00D+00
 Harris functional with IExCor=  402 and IRadAn=       4 diagonalized for initial guess.
 HarFok:  IExCor=  402 AccDes= 0.00D+00 IRadAn=         4 IDoV= 1 UseB2=F ITyADJ=14
 ICtDFT=  3500011 ScaDFX=  1.000000  1.000000  1.000000  1.000000
 FoFCou: FMM=F IPFlag=           0 FMFlag=      100000 FMFlg1=           0
         NFxFlg=           0 DoJE=T BraDBF=F KetDBF=T FulRan=T
         wScrn=  0.000000 ICntrl=     500 IOpCl=  0 I1Cent=   200000004 NGrid=           0
         NMat0=    1 NMatS0=      1 NMatT0=    0 NMatD0=    1 NMtDS0=    0 NMtDT0=    0
 Petite list used in FoFCou.
 Keep R1 ints in memory in canonical form, NReq=24036422.
 Requested convergence on RMS density matrix=1.00D-08 within 128 cycles.
 Requested convergence on MAX density matrix=1.00D-06.
 Requested convergence on             energy=1.00D-06.
 No special actions if energy rises.
 Integral accuracy reduced to 1.0D-05 until final iterations.
 Initial convergence to 1.0D-05 achieved.  Increase integral accuracy.
 SCF Done:  E(RB3LYP) =  -644.243994385     A.U. after   13 cycles
            NFock= 13  Conv=0.40D-08     -V/T= 2.0028
 Calling FoFJK, ICntrl=      2127 FMM=F ISym2X=0 I1Cent= 0 IOpClX= 0 NMat=1 NMatS=1 NMatT=0.
 ***** Axes restored to original set *****
 -------------------------------------------------------------------
 Center     Atomic                   Forces (Hartrees/Bohr)
 Number     Number              X              Y              Z
 -------------------------------------------------------------------
      1       15           0.033458376    0.045648474   -0.080296077
      2        8          -0.033209261   -0.046720166    0.081924177
      3        8          -0.018571729   -0.027218029   -0.021792279
      4        1           0.002036353    0.002106223   -0.000894911
      5        8          -0.020836131    0.033269512    0.012423080
      6        1           0.001378314   -0.001490175   -0.002680324
      7        8           0.037556878   -0.007484271    0.013366950
      8        1          -0.001812799    0.001888432   -0.002050617
 -------------------------------------------------------------------
 Cartesian Forces:  Max     0.081924177 RMS     0.032003146

 GradGradGradGradGradGradGradGradGradGradGradGradGradGradGradGradGradGrad
 Berny optimization.
 Using GEDIIS/GDIIS optimizer.
 FormGI is forming the generalized inverse of G from B-inverse, IUseBI=4.
 Internal  Forces:  Max     0.099981531 RMS     0.024480618
 Search for a local minimum.
 Step number   2 out of a maximum of   35
 All quantities printed in internal units (Hartrees-Bohrs-Radians)
 Mixed Optimization -- RFO/linear search
 Update second derivatives using D2CorX and points    1    2
 DE= -4.87D-02 DEPred=-4.17D-02 R= 1.17D+00
 TightC=F SS=  1.41D+00  RLast= 3.30D-01 DXNew= 5.0454D-01 9.9011D-01
 Trust test= 1.17D+00 RLast= 3.30D-01 DXMaxT set to 5.05D-01
 ITU=  1  0
 Use linear search instead of GDIIS.
     Eigenvalues ---    0.01954   0.01958   0.01958   0.11391   0.13058
     Eigenvalues ---    0.13089   0.15990   0.16000   0.16541   0.21550
     Eigenvalues ---    0.21669   0.22221   0.34713   0.34713   0.35638
     Eigenvalues ---    0.55473   0.55473   0.55668
 RFO step:  Lambda=-6.62101366D-03 EMin= 1.95445402D-02
 Quartic linear search produced a step of  1.07531.
 Iteration  1 RMS(Cart)=  0.05761757 RMS(Int)=  0.02626621
 Iteration  2 RMS(Cart)=  0.02447897 RMS(Int)=  0.00195820
 Iteration  3 RMS(Cart)=  0.00000557 RMS(Int)=  0.00195818
 Iteration  4 RMS(Cart)=  0.00000002 RMS(Int)=  0.00195818
 Variable       Old X    -DE/DX   Delta X   Delta X   Delta X     New X
                                 (Linear)    (Quad)   (Total)
    R1        3.00872  -0.09998  -0.23948  -0.09029  -0.32978   2.67894
    R2        3.13782  -0.03531  -0.10067   0.00152  -0.09915   3.03867
    R3        3.13865  -0.03584  -0.09976  -0.00344  -0.10321   3.03545
    R4        3.13995  -0.03514  -0.09837  -0.00223  -0.10060   3.03936
    R5        1.82203   0.00268   0.00849  -0.00532   0.00317   1.82519
    R6        1.82217   0.00255   0.00864  -0.00606   0.00257   1.82474
    R7        1.82204   0.00250   0.00849  -0.00599   0.00250   1.82454
    A1        1.95257   0.00774   0.04510  -0.01921   0.02664   1.97922
    A2        1.95905   0.00976   0.05206  -0.01744   0.03550   1.99455
    A3        1.95947   0.00984   0.05252  -0.01762   0.03575   1.99522
    A4        1.86289  -0.00939  -0.05134   0.02259  -0.03296   1.82992
    A5        1.86396  -0.00923  -0.05018   0.02124  -0.03319   1.83078
    A6        1.85927  -0.01126  -0.05523   0.01550  -0.04371   1.81555
    A7        1.88113  -0.00003  -0.03227   0.09409   0.06182   1.94295
    A8        1.89181   0.00178  -0.02079   0.08305   0.06226   1.95407
    A9        1.89203   0.00171  -0.02057   0.08157   0.06100   1.95303
    D1       -0.68228   0.00094   0.00560   0.00843   0.01404  -0.66824
    D2        1.46694   0.01154   0.06456  -0.00993   0.05217   1.51911
    D3       -2.83276  -0.00989  -0.05470   0.02796  -0.02430  -2.85706
    D4       -0.98263   0.00068   0.00487   0.00877   0.01369  -0.96894
    D5       -3.12781  -0.00865  -0.04974   0.02819  -0.01882   3.13655
    D6        1.16869   0.01135   0.06608  -0.01348   0.04981   1.21850
    D7       -0.98090   0.00151   0.00883   0.00822   0.01698  -0.96392
    D8        1.16529   0.01101   0.06451  -0.01226   0.04955   1.21483
    D9       -3.13195  -0.00910  -0.05210   0.03035  -0.01898   3.13226
         Item               Value     Threshold  Converged?
 Maximum Force            0.099982     0.000450     NO 
 RMS     Force            0.024481     0.000300     NO 
 Maximum Displacement     0.183716     0.001800     NO 
 RMS     Displacement     0.071545     0.001200     NO 
 Predicted change in Energy=-3.438738D-02
 GradGradGradGradGradGradGradGradGradGradGradGradGradGradGradGradGradGrad

                          Input orientation:                          
 ---------------------------------------------------------------------
 Center     Atomic      Atomic             Coordinates (Angstroms)
 Number     Number       Type             X           Y           Z
 ---------------------------------------------------------------------
      1         15           0       -0.937180   -0.686292   -1.196846
      2          8           0       -0.458008   -0.012367   -2.348327
      3          8           0       -0.462544   -0.010075    0.182682
      4          1           0        0.446665    0.310166    0.122252
      5          8           0       -0.469573   -2.219020   -1.086166
      6          1           0       -0.710988   -2.727745   -1.870593
      7          8           0       -2.540411   -0.759345   -1.091354
      8          1           0       -2.944637    0.116239   -1.137715
 ---------------------------------------------------------------------
                    Distance matrix (angstroms):
                    1          2          3          4          5
     1  P    0.000000
     2  O    1.417635   0.000000
     3  O    1.607994   2.531014   0.000000
     4  H    2.155916   2.650702   0.965851   0.000000
     5  O    1.606289   2.542146   2.547442   2.948992   0.000000
     6  H    2.161626   2.768665   3.415171   3.813200   0.965613
     7  O    1.608359   2.544477   2.549923   3.396958   2.533584
     8  H    2.162738   2.768654   2.814283   3.622990   3.403239
                    6          7          8
     6  H    0.000000
     7  O    2.797963   0.000000
     8  H    3.689789   0.965503   0.000000
 Stoichiometry    H3O4P
 Framework group  C1[X(H3O4P)]
 Deg. of freedom    18
 Full point group                 C1      NOp   1
 Largest Abelian subgroup         C1      NOp   1
 Largest concise Abelian subgroup C1      NOp   1
                         Standard orientation:                         
 ---------------------------------------------------------------------
 Center     Atomic      Atomic             Coordinates (Angstroms)
 Number     Number       Type             X           Y           Z
 ---------------------------------------------------------------------
      1         15           0       -0.006123   -0.008611    0.102988
      2          8           0       -0.127381   -0.083496    1.513441
      3          8           0       -1.384979   -0.296179   -0.672708
      4          1           0       -1.890462   -0.997603   -0.242172
      5          8           0        1.044424   -1.048420   -0.525750
      6          1           0        1.920912   -0.959771   -0.130379
      7          8           0        0.485771    1.421469   -0.444488
      8          1           0       -0.081277    2.139543   -0.136231
 ---------------------------------------------------------------------
 Rotational constants (GHZ):      4.6018938      4.5375483      4.3025810
 Standard basis: 6-311G(d,p) (5D, 7F)
 There are   121 symmetry adapted cartesian basis functions of A   symmetry.
 There are   116 symmetry adapted basis functions of A   symmetry.
   116 basis functions,   198 primitive gaussians,   121 cartesian basis functions
    25 alpha electrons       25 beta electrons
       nuclear repulsion energy       280.6989326383 Hartrees.
 NAtoms=    8 NActive=    8 NUniq=    8 SFac= 1.00D+00 NAtFMM=   60 NAOKFM=F Big=F
 Integral buffers will be    131072 words long.
 Raffenetti 2 integral format.
 Two-electron integral symmetry is turned on.
 One-electron integrals computed using PRISM.
 NBasis=   116 RedAO= T EigKep=  9.47D-03  NBF=   116
 NBsUse=   116 1.00D-06 EigRej= -1.00D+00 NBFU=   116
 Initial guess from the checkpoint file:  "H3PO42.chk"
 B after Tr=     0.000000    0.000000    0.000000
         Rot=    0.997779    0.000738    0.001676    0.066583 Ang=   7.64 deg.
 ExpMin= 6.85D-02 ExpMax= 7.75D+04 ExpMxC= 2.65D+03 IAcc=2 IRadAn=         4 AccDes= 0.00D+00
 Harris functional with IExCor=  402 and IRadAn=       4 diagonalized for initial guess.
 HarFok:  IExCor=  402 AccDes= 0.00D+00 IRadAn=         4 IDoV= 1 UseB2=F ITyADJ=14
 ICtDFT=  3500011 ScaDFX=  1.000000  1.000000  1.000000  1.000000
 FoFCou: FMM=F IPFlag=           0 FMFlag=      100000 FMFlg1=           0
         NFxFlg=           0 DoJE=T BraDBF=F KetDBF=T FulRan=T
         wScrn=  0.000000 ICntrl=     500 IOpCl=  0 I1Cent=   200000004 NGrid=           0
         NMat0=    1 NMatS0=      1 NMatT0=    0 NMatD0=    1 NMtDS0=    0 NMtDT0=    0
 Petite list used in FoFCou.
 Keep R1 ints in memory in canonical form, NReq=24036422.
 Requested convergence on RMS density matrix=1.00D-08 within 128 cycles.
 Requested convergence on MAX density matrix=1.00D-06.
 Requested convergence on             energy=1.00D-06.
 No special actions if energy rises.
 Integral accuracy reduced to 1.0D-05 until final iterations.
 Initial convergence to 1.0D-05 achieved.  Increase integral accuracy.
 SCF Done:  E(RB3LYP) =  -644.262107456     A.U. after   13 cycles
            NFock= 13  Conv=0.65D-08     -V/T= 2.0016
 Calling FoFJK, ICntrl=      2127 FMM=F ISym2X=0 I1Cent= 0 IOpClX= 0 NMat=1 NMatS=1 NMatT=0.
 ***** Axes restored to original set *****
 -------------------------------------------------------------------
 Center     Atomic                   Forces (Hartrees/Bohr)
 Number     Number              X              Y              Z
 -------------------------------------------------------------------
      1       15          -0.019382438   -0.027754118    0.046986346
      2        8           0.028615401    0.040493490   -0.068900135
      3        8          -0.003759450   -0.008885781    0.004434664
      4        1          -0.002043896   -0.000046592   -0.000779817
      5        8          -0.007985105   -0.000212867    0.008124317
      6        1           0.001690129    0.001138241    0.000736466
      7        8           0.002588573   -0.003185187    0.010866338
      8        1           0.000276787   -0.001547187   -0.001468178
 -------------------------------------------------------------------
 Cartesian Forces:  Max     0.068900135 RMS     0.021361062

 GradGradGradGradGradGradGradGradGradGradGradGradGradGradGradGradGradGrad
 Berny optimization.
 Using GEDIIS/GDIIS optimizer.
 FormGI is forming the generalized inverse of G from B-inverse, IUseBI=4.
 Internal  Forces:  Max     0.084886834 RMS     0.017782258
 Search for a local minimum.
 Step number   3 out of a maximum of   35
 All quantities printed in internal units (Hartrees-Bohrs-Radians)
 Mixed Optimization -- RFO/linear search
 Update second derivatives using D2CorX and points    2    3
 DE= -1.81D-02 DEPred=-3.44D-02 R= 5.27D-01
 TightC=F SS=  1.41D+00  RLast= 4.10D-01 DXNew= 8.4853D-01 1.2288D+00
 Trust test= 5.27D-01 RLast= 4.10D-01 DXMaxT set to 8.49D-01
 ITU=  1  1  0
 Use linear search instead of GDIIS.
     Eigenvalues ---    0.01958   0.01958   0.01959   0.12688   0.12713
     Eigenvalues ---    0.12849   0.15994   0.16000   0.16768   0.21342
     Eigenvalues ---    0.21458   0.33451   0.34713   0.34730   0.54997
     Eigenvalues ---    0.55473   0.55475   0.57927
 RFO step:  Lambda=-1.16105554D-02 EMin= 1.95774587D-02
 Quartic linear search produced a step of -0.23842.
 Iteration  1 RMS(Cart)=  0.06409873 RMS(Int)=  0.00261560
 Iteration  2 RMS(Cart)=  0.00254884 RMS(Int)=  0.00149732
 Iteration  3 RMS(Cart)=  0.00000308 RMS(Int)=  0.00149732
 Iteration  4 RMS(Cart)=  0.00000000 RMS(Int)=  0.00149732
 Variable       Old X    -DE/DX   Delta X   Delta X   Delta X     New X
                                 (Linear)    (Quad)   (Total)
    R1        2.67894   0.08489   0.07863   0.04071   0.11934   2.79828
    R2        3.03867  -0.00234   0.02364  -0.04795  -0.02432   3.01435
    R3        3.03545  -0.00210   0.02461  -0.04894  -0.02433   3.01111
    R4        3.03936  -0.00202   0.02398  -0.04770  -0.02372   3.01564
    R5        1.82519  -0.00188  -0.00075  -0.00127  -0.00203   1.82317
    R6        1.82474  -0.00162  -0.00061  -0.00112  -0.00173   1.82301
    R7        1.82454  -0.00145  -0.00060  -0.00092  -0.00152   1.82302
    A1        1.97922   0.00697  -0.00635   0.05898   0.05320   2.03242
    A2        1.99455   0.00707  -0.00846   0.06422   0.05632   2.05087
    A3        1.99522   0.00695  -0.00852   0.06436   0.05637   2.05159
    A4        1.82992  -0.00833   0.00786  -0.07134  -0.06637   1.76355
    A5        1.83078  -0.00792   0.00791  -0.06963  -0.06467   1.76611
    A6        1.81555  -0.00793   0.01042  -0.07503  -0.06756   1.74800
    A7        1.94295  -0.00120  -0.01474   0.02008   0.00534   1.94828
    A8        1.95407   0.00013  -0.01485   0.02800   0.01316   1.96723
    A9        1.95303   0.00048  -0.01454   0.02896   0.01442   1.96744
    D1       -0.66824   0.00056  -0.00335   0.03970   0.03637  -0.63187
    D2        1.51911   0.00788  -0.01244   0.10660   0.09196   1.61107
    D3       -2.85706  -0.00692   0.00579  -0.02869  -0.02071  -2.87777
    D4       -0.96894   0.00075  -0.00326   0.04888   0.04559  -0.92334
    D5        3.13655  -0.00648   0.00449  -0.01444  -0.00770   3.12885
    D6        1.21850   0.00816  -0.01188   0.11559   0.10148   1.31998
    D7       -0.96392   0.00089  -0.00405   0.05380   0.04975  -0.91416
    D8        1.21483   0.00835  -0.01181   0.11855   0.10454   1.31938
    D9        3.13226  -0.00660   0.00453  -0.01281  -0.00609   3.12617
         Item               Value     Threshold  Converged?
 Maximum Force            0.084887     0.000450     NO 
 RMS     Force            0.017782     0.000300     NO 
 Maximum Displacement     0.178155     0.001800     NO 
 RMS     Displacement     0.065531     0.001200     NO 
 Predicted change in Energy=-8.170431D-03
 GradGradGradGradGradGradGradGradGradGradGradGradGradGradGradGradGradGrad

                          Input orientation:                          
 ---------------------------------------------------------------------
 Center     Atomic      Atomic             Coordinates (Angstroms)
 Number     Number       Type             X           Y           Z
 ---------------------------------------------------------------------
      1         15           0       -0.920050   -0.661233   -1.239614
      2          8           0       -0.419393    0.042249   -2.442602
      3          8           0       -0.481634   -0.057673    0.170327
      4          1           0        0.418659    0.288177    0.144646
      5          8           0       -0.510725   -2.190382   -1.057628
      6          1           0       -0.719121   -2.726487   -1.832097
      7          8           0       -2.501146   -0.769037   -1.052212
      8          1           0       -2.943266    0.085946   -1.116886
 ---------------------------------------------------------------------
                    Distance matrix (angstroms):
                    1          2          3          4          5
     1  P    0.000000
     2  O    1.480786   0.000000
     3  O    1.595127   2.615580   0.000000
     4  H    2.147021   2.730690   0.964779   0.000000
     5  O    1.593413   2.628905   2.461132   2.907313   0.000000
     6  H    2.157935   2.851045   3.344947   3.780245   0.964697
     7  O    1.595809   2.631552   2.465577   3.327977   2.445819
     8  H    2.160265   2.851206   2.781578   3.596512   3.332033
                    6          7          8
     6  H    0.000000
     7  O    2.759609   0.000000
     8  H    3.656245   0.964701   0.000000
 Stoichiometry    H3O4P
 Framework group  C1[X(H3O4P)]
 Deg. of freedom    18
 Full point group                 C1      NOp   1
 Largest Abelian subgroup         C1      NOp   1
 Largest concise Abelian subgroup C1      NOp   1
                         Standard orientation:                         
 ---------------------------------------------------------------------
 Center     Atomic      Atomic             Coordinates (Angstroms)
 Number     Number       Type             X           Y           Z
 ---------------------------------------------------------------------
      1         15           0       -0.040846   -0.041002    0.121164
      2          8           0       -0.522119   -0.458911    1.457747
      3          8           0       -1.148238    0.113010   -1.016549
      4          1           0       -1.840219   -0.553916   -0.931867
      5          8           0        1.016869   -0.983611   -0.608008
      6          1           0        1.783627   -1.179626   -0.056373
      7          8           0        0.711417    1.362220    0.013124
      8          1           0        0.205847    2.086905    0.400268
 ---------------------------------------------------------------------
 Rotational constants (GHZ):      4.5955345      4.4348423      4.3842526
 Standard basis: 6-311G(d,p) (5D, 7F)
 There are   121 symmetry adapted cartesian basis functions of A   symmetry.
 There are   116 symmetry adapted basis functions of A   symmetry.
   116 basis functions,   198 primitive gaussians,   121 cartesian basis functions
    25 alpha electrons       25 beta electrons
       nuclear repulsion energy       279.8692339743 Hartrees.
 NAtoms=    8 NActive=    8 NUniq=    8 SFac= 1.00D+00 NAtFMM=   60 NAOKFM=F Big=F
 Integral buffers will be    131072 words long.
 Raffenetti 2 integral format.
 Two-electron integral symmetry is turned on.
 One-electron integrals computed using PRISM.
 NBasis=   116 RedAO= T EigKep=  8.86D-03  NBF=   116
 NBsUse=   116 1.00D-06 EigRej= -1.00D+00 NBFU=   116
 Initial guess from the checkpoint file:  "H3PO42.chk"
 B after Tr=     0.000000    0.000000    0.000000
         Rot=    0.982574   -0.132860    0.111901    0.066137 Ang= -21.42 deg.
 ExpMin= 6.85D-02 ExpMax= 7.75D+04 ExpMxC= 2.65D+03 IAcc=2 IRadAn=         4 AccDes= 0.00D+00
 Harris functional with IExCor=  402 and IRadAn=       4 diagonalized for initial guess.
 HarFok:  IExCor=  402 AccDes= 0.00D+00 IRadAn=         4 IDoV= 1 UseB2=F ITyADJ=14
 ICtDFT=  3500011 ScaDFX=  1.000000  1.000000  1.000000  1.000000
 FoFCou: FMM=F IPFlag=           0 FMFlag=      100000 FMFlg1=           0
         NFxFlg=           0 DoJE=T BraDBF=F KetDBF=T FulRan=T
         wScrn=  0.000000 ICntrl=     500 IOpCl=  0 I1Cent=   200000004 NGrid=           0
         NMat0=    1 NMatS0=      1 NMatT0=    0 NMatD0=    1 NMtDS0=    0 NMtDT0=    0
 Petite list used in FoFCou.
 Keep R1 ints in memory in canonical form, NReq=24036422.
 Requested convergence on RMS density matrix=1.00D-08 within 128 cycles.
 Requested convergence on MAX density matrix=1.00D-06.
 Requested convergence on             energy=1.00D-06.
 No special actions if energy rises.
 Integral accuracy reduced to 1.0D-05 until final iterations.
 Initial convergence to 1.0D-05 achieved.  Increase integral accuracy.
 SCF Done:  E(RB3LYP) =  -644.267904567     A.U. after   12 cycles
            NFock= 12  Conv=0.37D-08     -V/T= 2.0018
 Calling FoFJK, ICntrl=      2127 FMM=F ISym2X=0 I1Cent= 0 IOpClX= 0 NMat=1 NMatS=1 NMatT=0.
 ***** Axes restored to original set *****
 -------------------------------------------------------------------
 Center     Atomic                   Forces (Hartrees/Bohr)
 Number     Number              X              Y              Z
 -------------------------------------------------------------------
      1       15           0.002976939    0.004318903   -0.008549987
      2        8          -0.003608968   -0.004643823    0.008334719
      3        8           0.006512739    0.005427770    0.004584563
      4        1          -0.000488877    0.000905155    0.001195770
      5        8           0.002441397   -0.008433990   -0.003588567
      6        1           0.001710178   -0.000333120    0.000316644
      7        8          -0.008545663    0.003752247   -0.001039961
      8        1          -0.000997746   -0.000993141   -0.001253181
 -------------------------------------------------------------------
 Cartesian Forces:  Max     0.008549987 RMS     0.004494929

 GradGradGradGradGradGradGradGradGradGradGradGradGradGradGradGradGradGrad
 Berny optimization.
 Using GEDIIS/GDIIS optimizer.
 FormGI is forming the generalized inverse of G from B-inverse, IUseBI=4.
 Internal  Forces:  Max     0.010197508 RMS     0.004452224
 Search for a local minimum.
 Step number   4 out of a maximum of   35
 All quantities printed in internal units (Hartrees-Bohrs-Radians)
 Mixed Optimization -- RFO/linear search
 Update second derivatives using D2CorX and points    2    3    4
 DE= -5.80D-03 DEPred=-8.17D-03 R= 7.10D-01
 TightC=F SS=  1.41D+00  RLast= 2.74D-01 DXNew= 1.4270D+00 8.2061D-01
 Trust test= 7.10D-01 RLast= 2.74D-01 DXMaxT set to 8.49D-01
 ITU=  1  1  1  0
 Use linear search instead of GDIIS.
     Eigenvalues ---    0.01841   0.01958   0.01958   0.12044   0.12076
     Eigenvalues ---    0.12240   0.15999   0.16000   0.18251   0.20868
     Eigenvalues ---    0.21015   0.34705   0.34713   0.37415   0.55472
     Eigenvalues ---    0.55473   0.55685   0.69630
 RFO step:  Lambda=-7.76511883D-04 EMin= 1.84130424D-02
 Quartic linear search produced a step of -0.20384.
 Iteration  1 RMS(Cart)=  0.02779098 RMS(Int)=  0.00030395
 Iteration  2 RMS(Cart)=  0.00030755 RMS(Int)=  0.00014295
 Iteration  3 RMS(Cart)=  0.00000002 RMS(Int)=  0.00014295
 Variable       Old X    -DE/DX   Delta X   Delta X   Delta X     New X
                                 (Linear)    (Quad)   (Total)
    R1        2.79828  -0.01020  -0.02433   0.01711  -0.00722   2.79106
    R2        3.01435   0.00916   0.00496   0.01812   0.02307   3.03743
    R3        3.01111   0.00911   0.00496   0.01846   0.02342   3.03454
    R4        3.01564   0.00900   0.00483   0.01817   0.02301   3.03865
    R5        1.82317  -0.00016   0.00041  -0.00034   0.00007   1.82324
    R6        1.82301  -0.00044   0.00035  -0.00058  -0.00023   1.82278
    R7        1.82302  -0.00034   0.00031  -0.00042  -0.00011   1.82291
    A1        2.03242  -0.00304  -0.01084  -0.00796  -0.01888   2.01354
    A2        2.05087  -0.00297  -0.01148  -0.00727  -0.01881   2.03206
    A3        2.05159  -0.00325  -0.01149  -0.00797  -0.01950   2.03208
    A4        1.76355   0.00337   0.01353   0.00736   0.02115   1.78470
    A5        1.76611   0.00391   0.01318   0.00975   0.02322   1.78933
    A6        1.74800   0.00421   0.01377   0.01166   0.02573   1.77373
    A7        1.94828   0.00260  -0.00109   0.00158   0.00049   1.94878
    A8        1.96723   0.00191  -0.00268   0.00067  -0.00202   1.96521
    A9        1.96744   0.00206  -0.00294   0.00166  -0.00127   1.96617
    D1       -0.63187   0.00039  -0.00741   0.01220   0.00478  -0.62709
    D2        1.61107  -0.00274  -0.01875   0.00351  -0.01502   1.59606
    D3       -2.87777   0.00346   0.00422   0.01994   0.02395  -2.85382
    D4       -0.92334   0.00062  -0.00929   0.02565   0.01637  -0.90698
    D5        3.12885   0.00378   0.00157   0.03478   0.03613  -3.11820
    D6        1.31998  -0.00211  -0.02069   0.02004  -0.00044   1.31954
    D7       -0.91416   0.00095  -0.01014   0.02981   0.01966  -0.89450
    D8        1.31938  -0.00197  -0.02131   0.02212   0.00100   1.32038
    D9        3.12617   0.00350   0.00124   0.03496   0.03602  -3.12100
         Item               Value     Threshold  Converged?
 Maximum Force            0.010198     0.000450     NO 
 RMS     Force            0.004452     0.000300     NO 
 Maximum Displacement     0.047088     0.001800     NO 
 RMS     Displacement     0.027722     0.001200     NO 
 Predicted change in Energy=-7.684148D-04
 GradGradGradGradGradGradGradGradGradGradGradGradGradGradGradGradGradGrad

                          Input orientation:                          
 ---------------------------------------------------------------------
 Center     Atomic      Atomic             Coordinates (Angstroms)
 Number     Number       Type             X           Y           Z
 ---------------------------------------------------------------------
      1         15           0       -0.929302   -0.671610   -1.220682
      2          8           0       -0.432236    0.029714   -2.421724
      3          8           0       -0.464228   -0.044984    0.184514
      4          1           0        0.435202    0.301269    0.139706
      5          8           0       -0.503015   -2.211935   -1.064795
      6          1           0       -0.700883   -2.732792   -1.852172
      7          8           0       -2.526064   -0.758604   -1.052175
      8          1           0       -2.956151    0.100503   -1.138736
 ---------------------------------------------------------------------
                    Distance matrix (angstroms):
                    1          2          3          4          5
     1  P    0.000000
     2  O    1.476967   0.000000
     3  O    1.607337   2.607505   0.000000
     4  H    2.158476   2.717925   0.964818   0.000000
     5  O    1.605808   2.621308   2.501590   2.940624   0.000000
     6  H    2.167816   2.833373   3.380593   3.803129   0.964576
     7  O    1.607984   2.623209   2.507952   3.363482   2.490995
     8  H    2.170482   2.832175   2.825215   3.629875   3.372049
                    6          7          8
     6  H    0.000000
     7  O    2.805120   0.000000
     8  H    3.690906   0.964642   0.000000
 Stoichiometry    H3O4P
 Framework group  C1[X(H3O4P)]
 Deg. of freedom    18
 Full point group                 C1      NOp   1
 Largest Abelian subgroup         C1      NOp   1
 Largest concise Abelian subgroup C1      NOp   1
                         Standard orientation:                         
 ---------------------------------------------------------------------
 Center     Atomic      Atomic             Coordinates (Angstroms)
 Number     Number       Type             X           Y           Z
 ---------------------------------------------------------------------
      1         15           0       -0.018591   -0.014434    0.119619
      2          8           0       -0.284070   -0.159619    1.565259
      3          8           0       -1.301778   -0.172194   -0.835406
      4          1           0       -1.915361   -0.837148   -0.500404
      5          8           0        1.016793   -1.058776   -0.525322
      6          1           0        1.851001   -1.099639   -0.042794
      7          8           0        0.599880    1.391297   -0.356854
      8          1           0        0.096625    2.147643   -0.032498
 ---------------------------------------------------------------------
 Rotational constants (GHZ):      4.4698768      4.3994481      4.3763839
 Standard basis: 6-311G(d,p) (5D, 7F)
 There are   121 symmetry adapted cartesian basis functions of A   symmetry.
 There are   116 symmetry adapted basis functions of A   symmetry.
   116 basis functions,   198 primitive gaussians,   121 cartesian basis functions
    25 alpha electrons       25 beta electrons
       nuclear repulsion energy       278.3445368726 Hartrees.
 NAtoms=    8 NActive=    8 NUniq=    8 SFac= 1.00D+00 NAtFMM=   60 NAOKFM=F Big=F
 Integral buffers will be    131072 words long.
 Raffenetti 2 integral format.
 Two-electron integral symmetry is turned on.
 One-electron integrals computed using PRISM.
 NBasis=   116 RedAO= T EigKep=  9.33D-03  NBF=   116
 NBsUse=   116 1.00D-06 EigRej= -1.00D+00 NBFU=   116
 Initial guess from the checkpoint file:  "H3PO42.chk"
 B after Tr=     0.000000    0.000000    0.000000
         Rot=    0.991416    0.105537   -0.069874   -0.032760 Ang=  15.03 deg.
 ExpMin= 6.85D-02 ExpMax= 7.75D+04 ExpMxC= 2.65D+03 IAcc=2 IRadAn=         4 AccDes= 0.00D+00
 Harris functional with IExCor=  402 and IRadAn=       4 diagonalized for initial guess.
 HarFok:  IExCor=  402 AccDes= 0.00D+00 IRadAn=         4 IDoV= 1 UseB2=F ITyADJ=14
 ICtDFT=  3500011 ScaDFX=  1.000000  1.000000  1.000000  1.000000
 FoFCou: FMM=F IPFlag=           0 FMFlag=      100000 FMFlg1=           0
         NFxFlg=           0 DoJE=T BraDBF=F KetDBF=T FulRan=T
         wScrn=  0.000000 ICntrl=     500 IOpCl=  0 I1Cent=   200000004 NGrid=           0
         NMat0=    1 NMatS0=      1 NMatT0=    0 NMatD0=    1 NMtDS0=    0 NMtDT0=    0
 Petite list used in FoFCou.
 Keep R1 ints in memory in canonical form, NReq=24036422.
 Requested convergence on RMS density matrix=1.00D-08 within 128 cycles.
 Requested convergence on MAX density matrix=1.00D-06.
 Requested convergence on             energy=1.00D-06.
 No special actions if energy rises.
 Integral accuracy reduced to 1.0D-05 until final iterations.
 Initial convergence to 1.0D-05 achieved.  Increase integral accuracy.
 SCF Done:  E(RB3LYP) =  -644.268591593     A.U. after   11 cycles
            NFock= 11  Conv=0.74D-08     -V/T= 2.0019
 Calling FoFJK, ICntrl=      2127 FMM=F ISym2X=0 I1Cent= 0 IOpClX= 0 NMat=1 NMatS=1 NMatT=0.
 ***** Axes restored to original set *****
 -------------------------------------------------------------------
 Center     Atomic                   Forces (Hartrees/Bohr)
 Number     Number              X              Y              Z
 -------------------------------------------------------------------
      1       15           0.001865135    0.002537111   -0.004474119
      2        8          -0.001831118   -0.002187068    0.003756449
      3        8           0.000013431   -0.002139856   -0.000781360
      4        1          -0.000598332    0.000404482   -0.000071371
      5        8          -0.002675145    0.001210251    0.000698121
      6        1           0.001195313    0.000399257   -0.000123236
      7        8           0.002011521    0.000335446    0.002251070
      8        1           0.000019196   -0.000559623   -0.001255554
 -------------------------------------------------------------------
 Cartesian Forces:  Max     0.004474119 RMS     0.001822599

 GradGradGradGradGradGradGradGradGradGradGradGradGradGradGradGradGradGrad
 Berny optimization.
 Using GEDIIS/GDIIS optimizer.
 FormGI is forming the generalized inverse of G from B-inverse, IUseBI=4.
 Internal  Forces:  Max     0.004709396 RMS     0.001299773
 Search for a local minimum.
 Step number   5 out of a maximum of   35
 All quantities printed in internal units (Hartrees-Bohrs-Radians)
 Mixed Optimization -- RFO/linear search
 Update second derivatives using D2CorX and points    2    3    4    5
 DE= -6.87D-04 DEPred=-7.68D-04 R= 8.94D-01
 TightC=F SS=  1.41D+00  RLast= 9.21D-02 DXNew= 1.4270D+00 2.7639D-01
 Trust test= 8.94D-01 RLast= 9.21D-02 DXMaxT set to 8.49D-01
 ITU=  1  1  1  1  0
 Use linear search instead of GDIIS.
     Eigenvalues ---    0.01557   0.01956   0.01958   0.12244   0.12330
     Eigenvalues ---    0.13528   0.15999   0.16004   0.18385   0.21017
     Eigenvalues ---    0.21150   0.34712   0.34717   0.43098   0.55470
     Eigenvalues ---    0.55477   0.55497   0.71615
 RFO step:  Lambda=-2.73370206D-04 EMin= 1.55670338D-02
 Quartic linear search produced a step of -0.10604.
 Iteration  1 RMS(Cart)=  0.01349390 RMS(Int)=  0.00033642
 Iteration  2 RMS(Cart)=  0.00032266 RMS(Int)=  0.00001049
 Iteration  3 RMS(Cart)=  0.00000016 RMS(Int)=  0.00001049
 Variable       Old X    -DE/DX   Delta X   Delta X   Delta X     New X
                                 (Linear)    (Quad)   (Total)
    R1        2.79106  -0.00471   0.00077  -0.00816  -0.00740   2.78367
    R2        3.03743  -0.00159  -0.00245   0.00086  -0.00159   3.03584
    R3        3.03454  -0.00188  -0.00248   0.00004  -0.00244   3.03210
    R4        3.03865  -0.00190  -0.00244  -0.00003  -0.00247   3.03618
    R5        1.82324  -0.00041  -0.00001  -0.00092  -0.00093   1.82231
    R6        1.82278  -0.00036   0.00002  -0.00095  -0.00092   1.82186
    R7        1.82291  -0.00039   0.00001  -0.00094  -0.00093   1.82198
    A1        2.01354   0.00082   0.00200   0.00305   0.00505   2.01859
    A2        2.03206   0.00075   0.00199   0.00257   0.00456   2.03662
    A3        2.03208   0.00051   0.00207   0.00131   0.00337   2.03545
    A4        1.78470  -0.00097  -0.00224  -0.00404  -0.00625   1.77845
    A5        1.78933  -0.00063  -0.00246  -0.00148  -0.00393   1.78541
    A6        1.77373  -0.00092  -0.00273  -0.00288  -0.00559   1.76814
    A7        1.94878   0.00014  -0.00005   0.00580   0.00574   1.95452
    A8        1.96521   0.00011   0.00021   0.00504   0.00525   1.97046
    A9        1.96617   0.00006   0.00014   0.00512   0.00526   1.97143
    D1       -0.62709   0.00032  -0.00051   0.02139   0.02089  -0.60620
    D2        1.59606   0.00106   0.00159   0.02354   0.02514   1.62120
    D3       -2.85382  -0.00038  -0.00254   0.01889   0.01633  -2.83748
    D4       -0.90698   0.00080  -0.00174   0.04367   0.04193  -0.86504
    D5       -3.11820   0.00002  -0.00383   0.04124   0.03740  -3.08080
    D6        1.31954   0.00121   0.00005   0.04474   0.04480   1.36434
    D7       -0.89450   0.00062  -0.00208   0.04629   0.04421  -0.85030
    D8        1.32038   0.00152  -0.00011   0.04992   0.04983   1.37021
    D9       -3.12100   0.00005  -0.00382   0.04440   0.04056  -3.08044
         Item               Value     Threshold  Converged?
 Maximum Force            0.004709     0.000450     NO 
 RMS     Force            0.001300     0.000300     NO 
 Maximum Displacement     0.033231     0.001800     NO 
 RMS     Displacement     0.013467     0.001200     NO 
 Predicted change in Energy=-1.491082D-04
 GradGradGradGradGradGradGradGradGradGradGradGradGradGradGradGradGradGrad

                          Input orientation:                          
 ---------------------------------------------------------------------
 Center     Atomic      Atomic             Coordinates (Angstroms)
 Number     Number       Type             X           Y           Z
 ---------------------------------------------------------------------
      1         15           0       -0.930609   -0.670368   -1.219647
      2          8           0       -0.438930    0.027296   -2.420231
      3          8           0       -0.455960   -0.054416    0.186105
      4          1           0        0.437969    0.304279    0.139681
      5          8           0       -0.516363   -2.212437   -1.061860
      6          1           0       -0.686944   -2.729963   -1.857178
      7          8           0       -2.524731   -0.752102   -1.036615
      8          1           0       -2.961107    0.099270   -1.156321
 ---------------------------------------------------------------------
                    Distance matrix (angstroms):
                    1          2          3          4          5
     1  P    0.000000
     2  O    1.473053   0.000000
     3  O    1.606496   2.607672   0.000000
     4  H    2.161183   2.720077   0.964326   0.000000
     5  O    1.604516   2.620605   2.493616   2.947593   0.000000
     6  H    2.169734   2.825069   3.374450   3.802564   0.964087
     7  O    1.606676   2.621531   2.502324   3.358155   2.483296
     8  H    2.172390   2.822061   2.846312   3.643538   3.365960
                    6          7          8
     6  H    0.000000
     7  O    2.821829   0.000000
     8  H    3.696969   0.964151   0.000000
 Stoichiometry    H3O4P
 Framework group  C1[X(H3O4P)]
 Deg. of freedom    18
 Full point group                 C1      NOp   1
 Largest Abelian subgroup         C1      NOp   1
 Largest concise Abelian subgroup C1      NOp   1
                         Standard orientation:                         
 ---------------------------------------------------------------------
 Center     Atomic      Atomic             Coordinates (Angstroms)
 Number     Number       Type             X           Y           Z
 ---------------------------------------------------------------------
      1         15           0       -0.019698   -0.011460    0.122638
      2          8           0       -0.284563   -0.120134    1.567602
      3          8           0       -1.304689   -0.145916   -0.832113
      4          1           0       -1.951205   -0.769680   -0.481596
      5          8           0        0.978046   -1.096701   -0.510789
      6          1           0        1.799464   -1.186071   -0.014051
      7          8           0        0.642920    1.360746   -0.386674
      8          1           0        0.193501    2.143688   -0.048130
 ---------------------------------------------------------------------
 Rotational constants (GHZ):      4.4827222      4.4104483      4.3839589
 Standard basis: 6-311G(d,p) (5D, 7F)
 There are   121 symmetry adapted cartesian basis functions of A   symmetry.
 There are   116 symmetry adapted basis functions of A   symmetry.
   116 basis functions,   198 primitive gaussians,   121 cartesian basis functions
    25 alpha electrons       25 beta electrons
       nuclear repulsion energy       278.6566489308 Hartrees.
 NAtoms=    8 NActive=    8 NUniq=    8 SFac= 1.00D+00 NAtFMM=   60 NAOKFM=F Big=F
 Integral buffers will be    131072 words long.
 Raffenetti 2 integral format.
 Two-electron integral symmetry is turned on.
 One-electron integrals computed using PRISM.
 NBasis=   116 RedAO= T EigKep=  9.28D-03  NBF=   116
 NBsUse=   116 1.00D-06 EigRej= -1.00D+00 NBFU=   116
 Initial guess from the checkpoint file:  "H3PO42.chk"
 B after Tr=     0.000000    0.000000    0.000000
         Rot=    0.999808    0.009001   -0.000962    0.017381 Ang=   2.25 deg.
 ExpMin= 6.85D-02 ExpMax= 7.75D+04 ExpMxC= 2.65D+03 IAcc=2 IRadAn=         4 AccDes= 0.00D+00
 Harris functional with IExCor=  402 and IRadAn=       4 diagonalized for initial guess.
 HarFok:  IExCor=  402 AccDes= 0.00D+00 IRadAn=         4 IDoV= 1 UseB2=F ITyADJ=14
 ICtDFT=  3500011 ScaDFX=  1.000000  1.000000  1.000000  1.000000
 FoFCou: FMM=F IPFlag=           0 FMFlag=      100000 FMFlg1=           0
         NFxFlg=           0 DoJE=T BraDBF=F KetDBF=T FulRan=T
         wScrn=  0.000000 ICntrl=     500 IOpCl=  0 I1Cent=   200000004 NGrid=           0
         NMat0=    1 NMatS0=      1 NMatT0=    0 NMatD0=    1 NMtDS0=    0 NMtDT0=    0
 Petite list used in FoFCou.
 Keep R1 ints in memory in canonical form, NReq=24036422.
 Requested convergence on RMS density matrix=1.00D-08 within 128 cycles.
 Requested convergence on MAX density matrix=1.00D-06.
 Requested convergence on             energy=1.00D-06.
 No special actions if energy rises.
 Integral accuracy reduced to 1.0D-05 until final iterations.
 Initial convergence to 1.0D-05 achieved.  Increase integral accuracy.
 SCF Done:  E(RB3LYP) =  -644.268820462     A.U. after   10 cycles
            NFock= 10  Conv=0.78D-08     -V/T= 2.0019
 Calling FoFJK, ICntrl=      2127 FMM=F ISym2X=0 I1Cent= 0 IOpClX= 0 NMat=1 NMatS=1 NMatT=0.
 ***** Axes restored to original set *****
 -------------------------------------------------------------------
 Center     Atomic                   Forces (Hartrees/Bohr)
 Number     Number              X              Y              Z
 -------------------------------------------------------------------
      1       15          -0.000041551   -0.000220877    0.000468146
      2        8          -0.000258983    0.000061190   -0.000040004
      3        8          -0.000007939   -0.001017078   -0.000458066
      4        1          -0.000216722    0.000233492   -0.000287144
      5        8          -0.001300270    0.000405294    0.000443611
      6        1           0.000808784    0.000433183   -0.000392495
      7        8           0.000825069    0.000224455    0.001320159
      8        1           0.000191611   -0.000119659   -0.001054206
 -------------------------------------------------------------------
 Cartesian Forces:  Max     0.001320159 RMS     0.000593516

 GradGradGradGradGradGradGradGradGradGradGradGradGradGradGradGradGradGrad
 Berny optimization.
 Using GEDIIS/GDIIS optimizer.
 FormGI is forming the generalized inverse of G from B-inverse, IUseBI=4.
 Internal  Forces:  Max     0.001021315 RMS     0.000476967
 Search for a local minimum.
 Step number   6 out of a maximum of   35
 All quantities printed in internal units (Hartrees-Bohrs-Radians)
 Mixed Optimization -- En-DIIS/RFO-DIIS
 Update second derivatives using D2CorX and points    2    3    4    5    6
 DE= -2.29D-04 DEPred=-1.49D-04 R= 1.53D+00
 TightC=F SS=  1.41D+00  RLast= 1.14D-01 DXNew= 1.4270D+00 3.4054D-01
 Trust test= 1.53D+00 RLast= 1.14D-01 DXMaxT set to 8.49D-01
 ITU=  1  1  1  1  1  0
 Use linear search instead of GDIIS.
     Eigenvalues ---    0.00499   0.01958   0.01963   0.12215   0.12291
     Eigenvalues ---    0.15837   0.15999   0.16038   0.18401   0.20947
     Eigenvalues ---    0.21140   0.34712   0.34761   0.42220   0.55473
     Eigenvalues ---    0.55476   0.55785   0.78315
 RFO step:  Lambda=-1.47426223D-04 EMin= 4.98719574D-03
 Quartic linear search produced a step of  0.95648.
 Iteration  1 RMS(Cart)=  0.02997376 RMS(Int)=  0.00143018
 Iteration  2 RMS(Cart)=  0.00127695 RMS(Int)=  0.00000997
 Iteration  3 RMS(Cart)=  0.00000226 RMS(Int)=  0.00000986
 Iteration  4 RMS(Cart)=  0.00000000 RMS(Int)=  0.00000986
 Variable       Old X    -DE/DX   Delta X   Delta X   Delta X     New X
                                 (Linear)    (Quad)   (Total)
    R1        2.78367  -0.00002  -0.00707   0.00352  -0.00355   2.78012
    R2        3.03584  -0.00102  -0.00152  -0.00078  -0.00230   3.03354
    R3        3.03210  -0.00093  -0.00234   0.00006  -0.00227   3.02982
    R4        3.03618  -0.00098  -0.00236  -0.00027  -0.00263   3.03355
    R5        1.82231  -0.00010  -0.00089  -0.00019  -0.00108   1.82123
    R6        1.82186  -0.00005  -0.00088  -0.00012  -0.00100   1.82086
    R7        1.82198  -0.00006  -0.00089  -0.00011  -0.00099   1.82099
    A1        2.01859   0.00019   0.00483  -0.00177   0.00306   2.02165
    A2        2.03662   0.00008   0.00437  -0.00241   0.00196   2.03858
    A3        2.03545  -0.00017   0.00322  -0.00496  -0.00173   2.03372
    A4        1.77845  -0.00022  -0.00598   0.00190  -0.00410   1.77434
    A5        1.78541   0.00000  -0.00375   0.00373  -0.00005   1.78536
    A6        1.76814   0.00009  -0.00535   0.00550   0.00014   1.76827
    A7        1.95452  -0.00038   0.00549  -0.00324   0.00225   1.95678
    A8        1.97046  -0.00045   0.00502  -0.00452   0.00050   1.97096
    A9        1.97143  -0.00055   0.00503  -0.00545  -0.00042   1.97101
    D1       -0.60620   0.00015   0.01998   0.01542   0.03540  -0.57080
    D2        1.62120   0.00021   0.02405   0.01267   0.03670   1.65789
    D3       -2.83748   0.00025   0.01562   0.02005   0.03568  -2.80180
    D4       -0.86504   0.00062   0.04011   0.04654   0.08664  -0.77840
    D5       -3.08080   0.00049   0.03577   0.04888   0.08467  -2.99614
    D6        1.36434   0.00052   0.04285   0.04294   0.08577   1.45011
    D7       -0.85030   0.00055   0.04228   0.04893   0.09121  -0.75909
    D8        1.37021   0.00069   0.04766   0.04635   0.09400   1.46421
    D9       -3.08044   0.00048   0.03880   0.05088   0.08969  -2.99075
         Item               Value     Threshold  Converged?
 Maximum Force            0.001021     0.000450     NO 
 RMS     Force            0.000477     0.000300     NO 
 Maximum Displacement     0.077087     0.001800     NO 
 RMS     Displacement     0.029696     0.001200     NO 
 Predicted change in Energy=-1.950737D-04
 GradGradGradGradGradGradGradGradGradGradGradGradGradGradGradGradGradGrad

                          Input orientation:                          
 ---------------------------------------------------------------------
 Center     Atomic      Atomic             Coordinates (Angstroms)
 Number     Number       Type             X           Y           Z
 ---------------------------------------------------------------------
      1         15           0       -0.938019   -0.673233   -1.208134
      2          8           0       -0.456306    0.020359   -2.412807
      3          8           0       -0.439326   -0.069400    0.193156
      4          1           0        0.445356    0.307888    0.131374
      5          8           0       -0.539079   -2.218598   -1.055474
      6          1           0       -0.654092   -2.718320   -1.871250
      7          8           0       -2.529215   -0.737257   -1.005817
      8          1           0       -2.965994    0.100123   -1.197114
 ---------------------------------------------------------------------
                    Distance matrix (angstroms):
                    1          2          3          4          5
     1  P    0.000000
     2  O    1.471175   0.000000
     3  O    1.605280   2.607563   0.000000
     4  H    2.161159   2.714503   0.963756   0.000000
     5  O    1.603313   2.619568   2.487586   2.959874   0.000000
     6  H    2.168575   2.798708   3.365216   3.791731   0.963556
     7  O    1.605283   2.617356   2.500241   3.351657   2.481426
     8  H    2.170457   2.789768   2.888882   3.666791   3.359530
                    6          7          8
     6  H    0.000000
     7  O    2.861760   0.000000
     8  H    3.707151   0.963626   0.000000
 Stoichiometry    H3O4P
 Framework group  C1[X(H3O4P)]
 Deg. of freedom    18
 Full point group                 C1      NOp   1
 Largest Abelian subgroup         C1      NOp   1
 Largest concise Abelian subgroup C1      NOp   1
                         Standard orientation:                         
 ---------------------------------------------------------------------
 Center     Atomic      Atomic             Coordinates (Angstroms)
 Number     Number       Type             X           Y           Z
 ---------------------------------------------------------------------
      1         15           0       -0.017073   -0.002917    0.122066
      2          8           0       -0.243778   -0.014996    1.575618
      3          8           0       -1.331907   -0.116052   -0.791902
      4          1           0       -2.015793   -0.654869   -0.378621
      5          8           0        0.896042   -1.176786   -0.476988
      6          1           0        1.689666   -1.338514    0.044976
      7          8           0        0.706705    1.297405   -0.479799
      8          1           0        0.365724    2.120570   -0.112775
 ---------------------------------------------------------------------
 Rotational constants (GHZ):      4.4835887      4.4209242      4.3948853
 Standard basis: 6-311G(d,p) (5D, 7F)
 There are   121 symmetry adapted cartesian basis functions of A   symmetry.
 There are   116 symmetry adapted basis functions of A   symmetry.
   116 basis functions,   198 primitive gaussians,   121 cartesian basis functions
    25 alpha electrons       25 beta electrons
       nuclear repulsion energy       278.8922943922 Hartrees.
 NAtoms=    8 NActive=    8 NUniq=    8 SFac= 1.00D+00 NAtFMM=   60 NAOKFM=F Big=F
 Integral buffers will be    131072 words long.
 Raffenetti 2 integral format.
 Two-electron integral symmetry is turned on.
 One-electron integrals computed using PRISM.
 NBasis=   116 RedAO= T EigKep=  9.27D-03  NBF=   116
 NBsUse=   116 1.00D-06 EigRej= -1.00D+00 NBFU=   116
 Initial guess from the checkpoint file:  "H3PO42.chk"
 B after Tr=     0.000000    0.000000    0.000000
         Rot=    0.999059    0.027064   -0.013251    0.031206 Ang=   4.97 deg.
 ExpMin= 6.85D-02 ExpMax= 7.75D+04 ExpMxC= 2.65D+03 IAcc=2 IRadAn=         4 AccDes= 0.00D+00
 Harris functional with IExCor=  402 and IRadAn=       4 diagonalized for initial guess.
 HarFok:  IExCor=  402 AccDes= 0.00D+00 IRadAn=         4 IDoV= 1 UseB2=F ITyADJ=14
 ICtDFT=  3500011 ScaDFX=  1.000000  1.000000  1.000000  1.000000
 FoFCou: FMM=F IPFlag=           0 FMFlag=      100000 FMFlg1=           0
         NFxFlg=           0 DoJE=T BraDBF=F KetDBF=T FulRan=T
         wScrn=  0.000000 ICntrl=     500 IOpCl=  0 I1Cent=   200000004 NGrid=           0
         NMat0=    1 NMatS0=      1 NMatT0=    0 NMatD0=    1 NMtDS0=    0 NMtDT0=    0
 Petite list used in FoFCou.
 Keep R1 ints in memory in canonical form, NReq=24036422.
 Requested convergence on RMS density matrix=1.00D-08 within 128 cycles.
 Requested convergence on MAX density matrix=1.00D-06.
 Requested convergence on             energy=1.00D-06.
 No special actions if energy rises.
 Integral accuracy reduced to 1.0D-05 until final iterations.
 Initial convergence to 1.0D-05 achieved.  Increase integral accuracy.
 SCF Done:  E(RB3LYP) =  -644.269042054     A.U. after   10 cycles
            NFock= 10  Conv=0.99D-08     -V/T= 2.0018
 Calling FoFJK, ICntrl=      2127 FMM=F ISym2X=0 I1Cent= 0 IOpClX= 0 NMat=1 NMatS=1 NMatT=0.
 ***** Axes restored to original set *****
 -------------------------------------------------------------------
 Center     Atomic                   Forces (Hartrees/Bohr)
 Number     Number              X              Y              Z
 -------------------------------------------------------------------
      1       15          -0.000838170   -0.001311835    0.002698961
      2        8           0.000717865    0.001262185   -0.002263113
      3        8          -0.000519673   -0.000079780    0.000090541
      4        1           0.000283982   -0.000023549   -0.000411940
      5        8          -0.000120311   -0.000175409    0.000488458
      6        1           0.000223739    0.000299361   -0.000643300
      7        8          -0.000016500   -0.000373156    0.000720065
      8        1           0.000269069    0.000402183   -0.000679673
 -------------------------------------------------------------------
 Cartesian Forces:  Max     0.002698961 RMS     0.000905192

 GradGradGradGradGradGradGradGradGradGradGradGradGradGradGradGradGradGrad
 Berny optimization.
 Using GEDIIS/GDIIS optimizer.
 FormGI is forming the generalized inverse of G from B-inverse, IUseBI=4.
 Internal  Forces:  Max     0.002683297 RMS     0.000669714
 Search for a local minimum.
 Step number   7 out of a maximum of   35
 All quantities printed in internal units (Hartrees-Bohrs-Radians)
 Mixed Optimization -- En-DIIS/RFO-DIIS
 Swapping is turned off.
 Update second derivatives using D2CorX and points    3    4    5    6    7
 DE= -2.22D-04 DEPred=-1.95D-04 R= 1.14D+00
 TightC=F SS=  1.41D+00  RLast= 2.26D-01 DXNew= 1.4270D+00 6.7867D-01
 Trust test= 1.14D+00 RLast= 2.26D-01 DXMaxT set to 8.49D-01
 ITU=  1  1  1  1  1  1  0
     Eigenvalues ---    0.00345   0.01958   0.01983   0.12204   0.12287
     Eigenvalues ---    0.15979   0.15999   0.16753   0.18506   0.21010
     Eigenvalues ---    0.21126   0.34712   0.34775   0.45282   0.55473
     Eigenvalues ---    0.55477   0.56335   0.81870
 En-DIIS/RFO-DIIS IScMMF=        0 using points:     7    6
 RFO step:  Lambda=-2.22063776D-05.
 DidBck=F Rises=F RFO-DIIS coefs:    1.64596   -0.64596
 Iteration  1 RMS(Cart)=  0.02645243 RMS(Int)=  0.00111075
 Iteration  2 RMS(Cart)=  0.00096172 RMS(Int)=  0.00000158
 Iteration  3 RMS(Cart)=  0.00000125 RMS(Int)=  0.00000131
 Iteration  4 RMS(Cart)=  0.00000000 RMS(Int)=  0.00000131
 Variable       Old X    -DE/DX   Delta X   Delta X   Delta X     New X
[...]
    79. RY*(   8) O   5                  0.00001     4.77627   
    80. RY*(   9) O   5                  0.00002     2.91759   
    81. RY*(  10) O   5                  0.00000     3.22036   
    82. RY*(  11) O   5                  0.00001     3.05219   
    83. RY*(  12) O   5                  0.00000    49.50808   
    84. RY*(  13) O   5                  0.00000     4.75162   
    85. RY*(   1) H   6                  0.00159     1.37913   
    86. RY*(   2) H   6                  0.00142     1.49732   
    87. RY*(   3) H   6                  0.00116     0.97493   
    88. RY*(   4) H   6                  0.00029     1.74510   
    89. RY*(   5) H   6                  0.00002     2.54129   
    90. RY*(   1) O   7                  0.00125     1.44521   
    91. RY*(   2) O   7                  0.00074     0.94490   
    92. RY*(   3) O   7                  0.00065     1.16425   
    93. RY*(   4) O   7                  0.00025     1.34384   
    94. RY*(   5) O   7                  0.00008     3.19086   
    95. RY*(   6) O   7                  0.00002     3.04490   
    96. RY*(   7) O   7                  0.00003     3.92384   
    97. RY*(   8) O   7                  0.00001     4.73527   
    98. RY*(   9) O   7                  0.00001     3.50622   
    99. RY*(  10) O   7                  0.00000     4.69829   
   100. RY*(  11) O   7                  0.00000     3.23578   
   101. RY*(  12) O   7                  0.00000    49.56578   
   102. RY*(  13) O   7                  0.00001     3.36353   
   103. RY*(   1) H   8                  0.00159     1.37779   
   104. RY*(   2) H   8                  0.00142     1.49752   
   105. RY*(   3) H   8                  0.00116     0.97463   
   106. RY*(   4) H   8                  0.00029     1.74660   
   107. RY*(   5) H   8                  0.00002     2.54111   
   108. BD*(   1) P   1 - O   2          0.09006     0.38351   
   109. BD*(   2) P   1 - O   2          0.15635     0.31345  111(g),113(g),112(g),28(g)
                                                    34(g),47(g),27(g)
   110. BD*(   3) P   1 - O   2          0.15640     0.31341  112(g),113(g),111(g),27(g)
                                                    35(g),48(g),28(g)
   111. BD*(   1) P   1 - O   3          0.08906     0.45738   
   112. BD*(   1) P   1 - O   5          0.08908     0.45734   
   113. BD*(   1) P   1 - O   7          0.08908     0.45735   
   114. BD*(   1) O   3 - H   4          0.00390     0.38248   
   115. BD*(   1) O   5 - H   6          0.00390     0.38246   
   116. BD*(   1) O   7 - H   8          0.00390     0.38244   
       -------------------------------
              Total Lewis   49.20420  ( 98.4084%)
        Valence non-Lewis    0.68174  (  1.3635%)
        Rydberg non-Lewis    0.11406  (  0.2281%)
       -------------------------------
            Total unit  1   50.00000  (100.0000%)
           Charge unit  1    0.00000
 1\1\GINC-TITANIO\SP\RB3LYP\6-311G(d,p)\H3O4P1\SARARIOP\20-Jun-2017\0\\
 # B3LYP/6-311G** geom=check guess=read pop=nboread\\Title Card Require
 d\\0,1\P,0,-0.9567066154,-0.6715443489,-1.1929946177\O,0,-0.4953027667
 ,0.0025719163,-2.4196132784\O,0,-0.4352799626,-0.0559557185,0.19378609
 4\H,0,0.4754796365,0.2543346519,0.1317553923\O,0,-0.5576070485,-2.2180
 666078,-1.0404348659\H,0,-0.5905628571,-2.6844328587,-1.8836701383\O,0
 ,-2.5437472263,-0.7139587057,-0.961534234\H,0,-2.9729485599,0.09861256
 15,-1.2533605519\\Version=AM64L-G09RevD.01\State=1-A\HF=-644.2691566\R
 MSD=1.904e-09\Dipole=-0.0244209,-0.0351664,0.0625422\Quadrupole=2.8518
 076,1.5062739,-4.3580815,-1.7306886,3.1703281,4.6163621\PG=C01 [X(H3O4
 P1)]\\@


 IMAGINATION WILL OFTEN CARRY US TO WORLDS THAT NEVER WERE.
 BUT WITHOUT IT, WE GO NOWHERE. -- CARL SAGAN (COSMOS)
 Job cpu time:       0 days  0 hours  7 minutes 12.1 seconds.
 File lengths (MBytes):  RWF=      7 Int=      0 D2E=      0 Chk=      3 Scr=      1
 Normal termination of Gaussian 09 at Tue Jun 20 06:01:22 2017.
 Initial command:
 /usr/local/gaussian/gaussian09.d1/g09/l1.exe "/scratch/sarariop/H3PO42.com/Gau-5790.inp" -scrdir="/scratch/sarariop/H3PO42.com/"
 Default is to use a total of   8 processors:
                                8 via shared-memory
                                1 via Linda
 Entering Link 1 = /usr/local/gaussian/gaussian09.d1/g09/l1.exe PID=      7712.
  
 Copyright (c) 1988,1990,1992,1993,1995,1998,2003,2009,2013,
            Gaussian, Inc.  All Rights Reserved.
  
 This is part of the Gaussian(R) 09 program.  It is based on
 the Gaussian(R) 03 system (copyright 2003, Gaussian, Inc.),
 the Gaussian(R) 98 system (copyright 1998, Gaussian, Inc.),
 the Gaussian(R) 94 system (copyright 1995, Gaussian, Inc.),
 the Gaussian 92(TM) system (copyright 1992, Gaussian, Inc.),
 the Gaussian 90(TM) system (copyright 1990, Gaussian, Inc.),
 the Gaussian 88(TM) system (copyright 1988, Gaussian, Inc.),
 the Gaussian 86(TM) system (copyright 1986, Carnegie Mellon
 University), and the Gaussian 82(TM) system (copyright 1983,
 Carnegie Mellon University). Gaussian is a federally registered
 trademark of Gaussian, Inc.
  
 This software contains proprietary and confidential information,
 including trade secrets, belonging to Gaussian, Inc.
  
 This software is provided under written license and may be
 used, copied, transmitted, or stored only in accord with that
 written license.
  
 The following legend is applicable only to US Government
 contracts under FAR:
  
                    RESTRICTED RIGHTS LEGEND
  
 Use, reproduction and disclosure by the US Government is
 subject to restrictions as set forth in subparagraphs (a)
 and (c) of the Commercial Computer Software - Restricted
 Rights clause in FAR 52.227-19.
  
 Gaussian, Inc.
 340 Quinnipiac St., Bldg. 40, Wallingford CT 06492
  
  
 ---------------------------------------------------------------
 Warning -- This program may not be used in any manner that
 competes with the business of Gaussian, Inc. or will provide
 assistance to any competitor of Gaussian, Inc.  The licensee
 of this program is prohibited from giving any competitor of
 Gaussian, Inc. access to this program.  By using this program,
 the user acknowledges that Gaussian, Inc. is engaged in the
 business of creating and licensing software in the field of
 computational chemistry and represents and warrants to the
 licensee that it is not a competitor of Gaussian, Inc. and that
 it will not use this program in any manner prohibited above.
 ---------------------------------------------------------------
  

 Cite this work as:
 Gaussian 09, Revision D.01,
 M. J. Frisch, G. W. Trucks, H. B. Schlegel, G. E. Scuseria, 
 M. A. Robb, J. R. Cheeseman, G. Scalmani, V. Barone, B. Mennucci, 
 G. A. Petersson, H. Nakatsuji, M. Caricato, X. Li, H. P. Hratchian, 
 A. F. Izmaylov, J. Bloino, G. Zheng, J. L. Sonnenberg, M. Hada, 
 M. Ehara, K. Toyota, R. Fukuda, J. Hasegawa, M. Ishida, T. Nakajima, 
 Y. Honda, O. Kitao, H. Nakai, T. Vreven, J. A. Montgomery, Jr., 
 J. E. Peralta, F. Ogliaro, M. Bearpark, J. J. Heyd, E. Brothers, 
 K. N. Kudin, V. N. Staroverov, T. Keith, R. Kobayashi, J. Normand, 
 K. Raghavachari, A. Rendell, J. C. Burant, S. S. Iyengar, J. Tomasi, 
 M. Cossi, N. Rega, J. M. Millam, M. Klene, J. E. Knox, J. B. Cross, 
 V. Bakken, C. Adamo, J. Jaramillo, R. Gomperts, R. E. Stratmann, 
 O. Yazyev, A. J. Austin, R. Cammi, C. Pomelli, J. W. Ochterski, 
 R. L. Martin, K. Morokuma, V. G. Zakrzewski, G. A. Voth, 
 P. Salvador, J. J. Dannenberg, S. Dapprich, A. D. Daniels, 
 O. Farkas, J. B. Foresman, J. V. Ortiz, J. Cioslowski, 
 and D. J. Fox, Gaussian, Inc., Wallingford CT, 2013.
 
 ******************************************
 Gaussian 09:  AM64L-G09RevD.01 24-Apr-2013
                20-Jun-2017 
 ******************************************
 %chk=H3PO42.chk
 Default route:  MaxDisk=56GB
 ------------------------------------------------
 #B3LYP/6-311G** geom=check guess=read output=wfx
 ------------------------------------------------
 1/29=2,38=1/1;
 2/12=2,40=1/2;
 3/5=4,6=6,7=101,11=2,14=-4,16=1,25=1,30=1,74=-5,116=-2/1,2,3;
 4/5=1/1;
 5/5=2,38=6/2;
 6/7=2,8=2,9=2,10=2,28=1/1;
 99/5=1,6=200,9=1/99;
 -------------------
 Title Card Required
 -------------------
 Structure from the checkpoint file:  "H3PO42.chk"
 Charge =  0 Multiplicity = 1
 Redundant internal coordinates found in file.
 P,0,-0.9567066154,-0.6715443489,-1.1929946177
 O,0,-0.4953027667,0.0025719163,-2.4196132784
 O,0,-0.4352799626,-0.0559557185,0.193786094
 H,0,0.4754796365,0.2543346519,0.1317553923
 O,0,-0.5576070485,-2.2180666078,-1.0404348659
 H,0,-0.5905628571,-2.6844328587,-1.8836701383
 O,0,-2.5437472263,-0.7139587057,-0.961534234
 H,0,-2.9729485599,0.0986125615,-1.2533605519
 Recover connectivity data from disk.
                          Input orientation:                          
 ---------------------------------------------------------------------
 Center     Atomic      Atomic             Coordinates (Angstroms)
 Number     Number       Type             X           Y           Z
 ---------------------------------------------------------------------
      1         15           0       -0.956707   -0.671544   -1.192995
      2          8           0       -0.495303    0.002572   -2.419613
      3          8           0       -0.435280   -0.055956    0.193786
      4          1           0        0.475480    0.254335    0.131755
      5          8           0       -0.557607   -2.218067   -1.040435
      6          1           0       -0.590563   -2.684433   -1.883670
      7          8           0       -2.543747   -0.713959   -0.961534
      8          1           0       -2.972949    0.098613   -1.253361
 ---------------------------------------------------------------------
                    Distance matrix (angstroms):
                    1          2          3          4          5
     1  P    0.000000
     2  O    1.473743   0.000000
     3  O    1.604368   2.614744   0.000000
     4  H    2.159484   2.741402   0.964163   0.000000
     5  O    1.604458   2.614814   2.492587   2.924734   0.000000
     6  H    2.159355   2.741588   3.353927   3.719508   0.964173
     7  O    1.604391   2.614486   2.492663   3.353894   2.492653
     8  H    2.159171   2.740091   2.925387   3.719469   3.353538
                    6          7          8
     6  H    0.000000
     7  O    2.923702   0.000000
     8  H    3.717310   0.964183   0.000000
 Stoichiometry    H3O4P
 Framework group  C1[X(H3O4P)]
 Deg. of freedom    18
 Full point group                 C1      NOp   1
 Largest Abelian subgroup         C1      NOp   1
 Largest concise Abelian subgroup C1      NOp   1
                         Standard orientation:                         
 ---------------------------------------------------------------------
 Center     Atomic      Atomic             Coordinates (Angstroms)
 Number     Number       Type             X           Y           Z
 ---------------------------------------------------------------------
      1         15           0        0.000062    0.000311    0.118456
      2          8           0        0.002132    0.004408    1.592193
      3          8           0       -1.360819    0.468928   -0.590345
      4          1           0       -2.140746    0.168410   -0.109707
      5          8           0        0.271641   -1.414700   -0.587428
      6          1           0        0.925107   -1.937602   -0.108695
      7          8           0        1.086749    0.940903   -0.594613
      8          1           0        1.217085    1.768215   -0.116894
 ---------------------------------------------------------------------
 Rotational constants (GHZ):      4.4598592      4.4168529      4.4163933
 Standard basis: 6-311G(d,p) (5D, 7F)
 There are   121 symmetry adapted cartesian basis functions of A   symmetry.
 There are   116 symmetry adapted basis functions of A   symmetry.
   116 basis functions,   198 primitive gaussians,   121 cartesian basis functions
    25 alpha electrons       25 beta electrons
       nuclear repulsion energy       278.8352934481 Hartrees.
 NAtoms=    8 NActive=    8 NUniq=    8 SFac= 1.00D+00 NAtFMM=   60 NAOKFM=F Big=F
 Integral buffers will be    131072 words long.
 Raffenetti 2 integral format.
 Two-electron integral symmetry is turned on.
 One-electron integrals computed using PRISM.
 NBasis=   116 RedAO= T EigKep=  9.30D-03  NBF=   116
 NBsUse=   116 1.00D-06 EigRej= -1.00D+00 NBFU=   116
 Initial guess from the checkpoint file:  "H3PO42.chk"
 B after Tr=     0.000000    0.000000    0.000000
         Rot=    1.000000    0.000000    0.000000    0.000000 Ang=   0.00 deg.
 Keep R1 ints in memory in canonical form, NReq=24036422.
 Requested convergence on RMS density matrix=1.00D-08 within 128 cycles.
 Requested convergence on MAX density matrix=1.00D-06.
 Requested convergence on             energy=1.00D-06.
 No special actions if energy rises.
 SCF Done:  E(RB3LYP) =  -644.269156620     A.U. after    1 cycles
            NFock=  1  Conv=0.72D-09     -V/T= 2.0019

 **********************************************************************

            Population analysis using the SCF density.

 **********************************************************************

 Orbital symmetries:
       Occupied  (A) (A) (A) (A) (A) (A) (A) (A) (A) (A) (A) (A)
                 (A) (A) (A) (A) (A) (A) (A) (A) (A) (A) (A) (A)
                 (A)
       Virtual   (A) (A) (A) (A) (A) (A) (A) (A) (A) (A) (A) (A)
                 (A) (A) (A) (A) (A) (A) (A) (A) (A) (A) (A) (A)
                 (A) (A) (A) (A) (A) (A) (A) (A) (A) (A) (A) (A)
                 (A) (A) (A) (A) (A) (A) (A) (A) (A) (A) (A) (A)
                 (A) (A) (A) (A) (A) (A) (A) (A) (A) (A) (A) (A)
                 (A) (A) (A) (A) (A) (A) (A) (A) (A) (A) (A) (A)
                 (A) (A) (A) (A) (A) (A) (A) (A) (A) (A) (A) (A)
                 (A) (A) (A) (A) (A) (A) (A)
 The electronic state is 1-A.
 Alpha  occ. eigenvalues --  -77.20715 -19.16840 -19.16838 -19.16838 -19.08943
 Alpha  occ. eigenvalues --   -6.68804  -4.85029  -4.85029  -4.84855  -1.12048
 Alpha  occ. eigenvalues --   -1.05596  -1.05594  -0.97992  -0.67589  -0.57276
 Alpha  occ. eigenvalues --   -0.57272  -0.48499  -0.44495  -0.44493  -0.39084
 Alpha  occ. eigenvalues --   -0.39078  -0.38424  -0.35830  -0.31075  -0.31074
 Alpha virt. eigenvalues --   -0.00350   0.04142   0.04145   0.11396   0.13143
 Alpha virt. eigenvalues --    0.13147   0.15437   0.20731   0.20735   0.22890
 Alpha virt. eigenvalues --    0.36246   0.36615   0.36628   0.43332   0.60557
 Alpha virt. eigenvalues --    0.60559   0.70360   0.74948   0.74956   0.79062
 Alpha virt. eigenvalues --    0.80454   0.80460   0.88237   0.88246   0.89951
 Alpha virt. eigenvalues --    0.93529   0.93532   1.01010   1.01146   1.01154
 Alpha virt. eigenvalues --    1.13881   1.19213   1.19229   1.23208   1.34066
 Alpha virt. eigenvalues --    1.34071   1.35117   1.42168   1.48238   1.48255
 Alpha virt. eigenvalues --    1.57610   1.68066   1.68089   1.81112   1.92124
 Alpha virt. eigenvalues --    1.94178   1.94182   2.39773   2.40018   2.40029
 Alpha virt. eigenvalues --    2.80637   2.81412   2.81433   2.85074   2.85081
 Alpha virt. eigenvalues --    2.99799   3.00041   3.00056   3.05655   3.06033
 Alpha virt. eigenvalues --    3.06040   3.12673   3.12688   3.21626   3.33848
 Alpha virt. eigenvalues --    3.33856   3.50949   3.70315   3.70579   3.70585
 Alpha virt. eigenvalues --    4.74610   4.74629   4.75519   4.79755   4.83321
 Alpha virt. eigenvalues --    4.83330   4.95408   4.95414   5.16427   5.36003
 Alpha virt. eigenvalues --    5.42388   5.42400   6.99638  13.82670  13.82679
 Alpha virt. eigenvalues --   14.03624  49.76321  49.76322  49.77752  49.88275
 Alpha virt. eigenvalues --  163.02431
          Condensed to atoms (all electrons):
               1          2          3          4          5          6
     1  P   12.382661   0.592284   0.313661  -0.025127   0.313651  -0.025113
     2  O    0.592284   8.088808  -0.030954  -0.002056  -0.030946  -0.002055
     3  O    0.313661  -0.030954   7.971829   0.323628  -0.036737  -0.000699
     4  H   -0.025127  -0.002056   0.323628   0.395588  -0.001168  -0.000285
     5  O    0.313651  -0.030946  -0.036737  -0.001168   7.971904   0.323596
     6  H   -0.025113  -0.002055  -0.000699  -0.000285   0.323596   0.395657
     7  O    0.313608  -0.030984  -0.036725  -0.000702  -0.036753  -0.001166
     8  H   -0.025107  -0.002042  -0.001167  -0.000285  -0.000699  -0.000286
               7          8
     1  P    0.313608  -0.025107
     2  O   -0.030984  -0.002042
     3  O   -0.036725  -0.001167
     4  H   -0.000702  -0.000285
     5  O   -0.036753  -0.000699
     6  H   -0.001166  -0.000286
     7  O    7.971989   0.323577
     8  H    0.323577   0.395662
 Mulliken charges:
               1
     1  P    1.159482
     2  O   -0.582055
     3  O   -0.502837
     4  H    0.310406
     5  O   -0.502848
     6  H    0.310349
     7  O   -0.502844
     8  H    0.310347
 Sum of Mulliken charges =   0.00000
 Mulliken charges with hydrogens summed into heavy atoms:
               1
     1  P    1.159482
     2  O   -0.582055
     3  O   -0.192431
     5  O   -0.192499
     7  O   -0.192496
 Electronic spatial extent (au):  <R**2>=            406.3701
 Charge=              0.0000 electrons
 Dipole moment (field-independent basis, Debye):
    X=              0.0023    Y=             -0.0008    Z=             -0.1926  Tot=              0.1926
 Quadrupole moment (field-independent basis, Debye-Ang):
   XX=            -28.7384   YY=            -28.7637   ZZ=            -45.0676
   XY=             -0.0022   XZ=             -0.0199   YZ=             -0.0365
 Traceless Quadrupole moment (field-independent basis, Debye-Ang):
   XX=              5.4515   YY=              5.4262   ZZ=            -10.8777
   XY=             -0.0022   XZ=             -0.0199   YZ=             -0.0365
 Octapole moment (field-independent basis, Debye-Ang**2):
  XXX=            -13.0738  YYY=              2.2924  ZZZ=            -11.1729  XYY=             13.1064
  XXY=             -2.2510  XXZ=              3.7909  XZZ=             -0.0243  YZZ=             -0.0522
  YYZ=              3.7487  XYZ=             -0.0223
 Hexadecapole moment (field-independent basis, Debye-Ang**3):
 XXXX=           -115.3465 YYYY=           -115.4905 ZZZZ=           -179.1786 XXXY=              0.0086
 XXXZ=             -0.3583 YYYX=             -0.0142 YYYZ=             -2.7115 ZZZX=             -0.0216
 ZZZY=             -0.0428 XXYY=            -38.4232 XXZZ=            -56.2975 YYZZ=            -56.2686
 XXYZ=              2.5453 YYXZ=              0.2668 ZZXY=             -0.0100
 N-N= 2.788352934481D+02 E-N=-2.086010159293D+03  KE= 6.430777617432D+02
 1\1\GINC-TITANIO\SP\RB3LYP\6-311G(d,p)\H3O4P1\SARARIOP\20-Jun-2017\0\\
 #B3LYP/6-311G** geom=check guess=read output=wfx\\Title Card Required\
 \0,1\P,0,-0.9567066154,-0.6715443489,-1.1929946177\O,0,-0.4953027667,0
 .0025719163,-2.4196132784\O,0,-0.4352799626,-0.0559557185,0.193786094\
 H,0,0.4754796365,0.2543346519,0.1317553923\O,0,-0.5576070485,-2.218066
 6078,-1.0404348659\H,0,-0.5905628571,-2.6844328587,-1.8836701383\O,0,-
 2.5437472263,-0.7139587057,-0.961534234\H,0,-2.9729485599,0.0986125615
 ,-1.2533605519\\Version=AM64L-G09RevD.01\State=1-A\HF=-644.2691566\RMS
 D=7.217e-10\Dipole=-0.0244208,-0.0351666,0.0625422\Quadrupole=2.851807
 6,1.5062742,-4.3580819,-1.7306887,3.1703282,4.6163619\PG=C01 [X(H3O4P1
 )]\\@

 Writing a WFNX file to "H3PO42.wfx"


 I WISH TO HAVE NO CONNECTION WITH ANY SHIP THAT DOES NOT SAIL FAST,
 FOR I INTEND TO GO IN HARM'S WAY.
     -- JOHN PAUL JONES, USN 1747-1792
 Job cpu time:       0 days  0 hours  0 minutes 41.4 seconds.
 File lengths (MBytes):  RWF=      7 Int=      0 D2E=      0 Chk=      3 Scr=      1
 Normal termination of Gaussian 09 at Tue Jun 20 06:01:29 2017.
