 Entering Gaussian System, Link 0=g09
 Initial command:
 /usr/local/gaussian/gaussian09.d1/g09/l1.exe "/scratch/sarariop/H3PO42-A.com/Gau-17299.inp" -scrdir="/scratch/sarariop/H3PO42-A.com/"
 Default is to use a total of   8 processors:
                                8 via shared-memory
                                1 via Linda
 Entering Link 1 = /usr/local/gaussian/gaussian09.d1/g09/l1.exe PID=     17300.
  
 Copyright (c) 1988,1990,1992,1993,1995,1998,2003,2009,2013,
            Gaussian, Inc.  All Rights Reserved.
  
 This is part of the Gaussian(R) 09 program.  It is based on
 the Gaussian(R) 03 system (copyright 2003, Gaussian, Inc.),
 the Gaussian(R) 98 system (copyright 1998, Gaussian, Inc.),
 the Gaussian(R) 94 system (copyright 1995, Gaussian, Inc.),
 the Gaussian 92(TM) system (copyright 1992, Gaussian, Inc.),
 the Gaussian 90(TM) system (copyright 1990, Gaussian, Inc.),
 the Gaussian 88(TM) system (copyright 1988, Gaussian, Inc.),
 the Gaussian 86(TM) system (copyright 1986, Carnegie Mellon
 University), and the Gaussian 82(TM) system (copyright 1983,
 Carnegie Mellon University). Gaussian is a federally registered
 trademark of Gaussian, Inc.
  
 This software contains proprietary and confidential information,
 including trade secrets, belonging to Gaussian, Inc.
  
 This software is provided under written license and may be
 used, copied, transmitted, or stored only in accord with that
 written license.
  
 The following legend is applicable only to US Government
 contracts under FAR:
  
                    RESTRICTED RIGHTS LEGEND
  
 Use, reproduction and disclosure by the US Government is
 subject to restrictions as set forth in subparagraphs (a)
 and (c) of the Commercial Computer Software - Restricted
 Rights clause in FAR 52.227-19.
  
 Gaussian, Inc.
 340 Quinnipiac St., Bldg. 40, Wallingford CT 06492
  
  
 ---------------------------------------------------------------
 Warning -- This program may not be used in any manner that
 competes with the business of Gaussian, Inc. or will provide
 assistance to any competitor of Gaussian, Inc.  The licensee
 of this program is prohibited from giving any competitor of
 Gaussian, Inc. access to this program.  By using this program,
 the user acknowledges that Gaussian, Inc. is engaged in the
 business of creating and licensing software in the field of
 computational chemistry and represents and warrants to the
 licensee that it is not a competitor of Gaussian, Inc. and that
 it will not use this program in any manner prohibited above.
 ---------------------------------------------------------------
  

 Cite this work as:
 Gaussian 09, Revision D.01,
 M. J. Frisch, G. W. Trucks, H. B. Schlegel, G. E. Scuseria, 
 M. A. Robb, J. R. Cheeseman, G. Scalmani, V. Barone, B. Mennucci, 
 G. A. Petersson, H. Nakatsuji, M. Caricato, X. Li, H. P. Hratchian, 
 A. F. Izmaylov, J. Bloino, G. Zheng, J. L. Sonnenberg, M. Hada, 
 M. Ehara, K. Toyota, R. Fukuda, J. Hasegawa, M. Ishida, T. Nakajima, 
 Y. Honda, O. Kitao, H. Nakai, T. Vreven, J. A. Montgomery, Jr., 
 J. E. Peralta, F. Ogliaro, M. Bearpark, J. J. Heyd, E. Brothers, 
 K. N. Kudin, V. N. Staroverov, T. Keith, R. Kobayashi, J. Normand, 
 K. Raghavachari, A. Rendell, J. C. Burant, S. S. Iyengar, J. Tomasi, 
 M. Cossi, N. Rega, J. M. Millam, M. Klene, J. E. Knox, J. B. Cross, 
 V. Bakken, C. Adamo, J. Jaramillo, R. Gomperts, R. E. Stratmann, 
 O. Yazyev, A. J. Austin, R. Cammi, C. Pomelli, J. W. Ochterski, 
 R. L. Martin, K. Morokuma, V. G. Zakrzewski, G. A. Voth, 
 P. Salvador, J. J. Dannenberg, S. Dapprich, A. D. Daniels, 
 O. Farkas, J. B. Foresman, J. V. Ortiz, J. Cioslowski, 
 and D. J. Fox, Gaussian, Inc., Wallingford CT, 2013.
 
 ******************************************
 Gaussian 09:  AM64L-G09RevD.01 24-Apr-2013
                20-Jun-2017 
 ******************************************
 %chk=H3PO42-A.chk
 Default route:  MaxDisk=56GB
 ----------------------------------------------
 # opt freq b3lyp/6-311g(d,p) geom=connectivity
 ----------------------------------------------
 1/14=-1,18=20,19=15,26=3,38=1,57=2/1,3;
 2/9=110,12=2,17=6,18=5,40=1/2;
 3/5=4,6=6,7=101,11=2,16=1,25=1,30=1,71=1,74=-5/1,2,3;
 4//1;
 5/5=2,38=5/2;
 6/7=2,8=2,9=2,10=2,28=1/1;
 7//1,2,3,16;
 1/14=-1,18=20,19=15,26=3/3(2);
 2/9=110/2;
 99//99;
 2/9=110/2;
 3/5=4,6=6,7=101,11=2,16=1,25=1,30=1,71=1,74=-5/1,2,3;
 4/5=5,16=3,69=1/1;
 5/5=2,38=5/2;
 7//1,2,3,16;
 1/14=-1,18=20,19=15,26=3/3(-5);
 2/9=110/2;
 6/7=2,8=2,9=2,10=2,19=2,28=1/1;
 99/9=1/99;
 -------------------
 Title Card Required
 -------------------
 Symbolic Z-matrix:
 Charge = -1 Multiplicity = 1
 P                    -0.97712  -0.74181  -1.10227 
 O                    -0.40711   0.06428  -2.49848 
 O                    -0.40711   0.06428   0.29394 
 H                     0.49829   0.35003   0.15181 
 O                    -0.40714  -2.35402  -1.10227 
 H                    -0.68181  -2.79102  -1.91171 
 O                    -2.68712  -0.74179  -1.10227 
 

 GradGradGradGradGradGradGradGradGradGradGradGradGradGradGradGradGradGrad
 Berny optimization.
 Initialization pass.
                           ----------------------------
                           !    Initial Parameters    !
                           ! (Angstroms and Degrees)  !
 --------------------------                            --------------------------
 ! Name  Definition              Value          Derivative Info.                !
 --------------------------------------------------------------------------------
 ! R1    R(1,2)                  1.71           estimate D2E/DX2                !
 ! R2    R(1,3)                  1.71           estimate D2E/DX2                !
 ! R3    R(1,5)                  1.71           estimate D2E/DX2                !
 ! R4    R(1,7)                  1.71           estimate D2E/DX2                !
 ! R5    R(3,4)                  0.96           estimate D2E/DX2                !
 ! R6    R(5,6)                  0.96           estimate D2E/DX2                !
 ! A1    A(2,1,3)              109.4713         estimate D2E/DX2                !
 ! A2    A(2,1,5)              109.4712         estimate D2E/DX2                !
 ! A3    A(2,1,7)              109.4712         estimate D2E/DX2                !
 ! A4    A(3,1,5)              109.4712         estimate D2E/DX2                !
 ! A5    A(3,1,7)              109.4712         estimate D2E/DX2                !
 ! A6    A(5,1,7)              109.4712         estimate D2E/DX2                !
 ! A7    A(1,3,4)              109.5            estimate D2E/DX2                !
 ! A8    A(1,5,6)              109.5            estimate D2E/DX2                !
 ! D1    D(2,1,3,4)            -39.3902         estimate D2E/DX2                !
 ! D2    D(5,1,3,4)             80.6098         estimate D2E/DX2                !
 ! D3    D(7,1,3,4)           -159.3902         estimate D2E/DX2                !
 ! D4    D(2,1,5,6)            -56.5599         estimate D2E/DX2                !
 ! D5    D(3,1,5,6)           -176.5599         estimate D2E/DX2                !
 ! D6    D(7,1,5,6)             63.4401         estimate D2E/DX2                !
 --------------------------------------------------------------------------------
 Trust Radius=3.00D-01 FncErr=1.00D-07 GrdErr=1.00D-06
 Number of steps in this run=     30 maximum allowed number of steps=    100.
 GradGradGradGradGradGradGradGradGradGradGradGradGradGradGradGradGradGrad

                          Input orientation:                          
 ---------------------------------------------------------------------
 Center     Atomic      Atomic             Coordinates (Angstroms)
 Number     Number       Type             X           Y           Z
 ---------------------------------------------------------------------
      1         15           0       -0.977116   -0.741812   -1.102271
      2          8           0       -0.407106    0.064282   -2.498480
      3          8           0       -0.407106    0.064282    0.293939
      4          1           0        0.498293    0.350028    0.151806
      5          8           0       -0.407136   -2.354022   -1.102271
      6          1           0       -0.681809   -2.791022   -1.911706
      7          8           0       -2.687116   -0.741791   -1.102271
 ---------------------------------------------------------------------
                    Distance matrix (angstroms):
                    1          2          3          4          5
     1  P    0.000000
     2  O    1.710000   0.000000
     3  O    1.710000   2.792419   0.000000
     4  H    2.222983   2.815211   0.960000   0.000000
     5  O    1.710000   2.792418   2.792418   3.115188   0.000000
     6  H    2.222983   2.927888   3.618438   3.939152   0.960000
     7  O    1.710000   2.792418   2.792418   3.593273   2.792418
                    6          7
     6  H    0.000000
     7  O    2.979227   0.000000
 Stoichiometry    H2O4P(1-)
 Framework group  C1[X(H2O4P)]
 Deg. of freedom    15
 Full point group                 C1      NOp   1
 Largest Abelian subgroup         C1      NOp   1
 Largest concise Abelian subgroup C1      NOp   1
                         Standard orientation:                         
 ---------------------------------------------------------------------
 Center     Atomic      Atomic             Coordinates (Angstroms)
 Number     Number       Type             X           Y           Z
 ---------------------------------------------------------------------
      1         15           0        0.000000    0.042071    0.000000
      2          8           0       -0.082136    0.227965    1.697880
      3          8           0       -1.544940   -0.374332   -0.603217
      4          1           0       -1.969576   -0.988668    0.000003
      5          8           0        1.114807   -1.196242   -0.384561
      6          1           0        1.969575   -0.988670   -0.000003
      7          8           0        0.512269    1.510892   -0.710103
 ---------------------------------------------------------------------
 Rotational constants (GHZ):      3.9850440      3.8129983      3.7536114
 Standard basis: 6-311G(d,p) (5D, 7F)
 There are   115 symmetry adapted cartesian basis functions of A   symmetry.
 There are   110 symmetry adapted basis functions of A   symmetry.
   110 basis functions,   190 primitive gaussians,   115 cartesian basis functions
    25 alpha electrons       25 beta electrons
       nuclear repulsion energy       245.4839997736 Hartrees.
 NAtoms=    7 NActive=    7 NUniq=    7 SFac= 1.00D+00 NAtFMM=   60 NAOKFM=F Big=F
 Integral buffers will be    131072 words long.
 Raffenetti 2 integral format.
 Two-electron integral symmetry is turned on.
 One-electron integrals computed using PRISM.
 NBasis=   110 RedAO= T EigKep=  1.40D-02  NBF=   110
 NBsUse=   110 1.00D-06 EigRej= -1.00D+00 NBFU=   110
 ExpMin= 6.85D-02 ExpMax= 7.75D+04 ExpMxC= 2.65D+03 IAcc=2 IRadAn=         4 AccDes= 0.00D+00
 Harris functional with IExCor=  402 and IRadAn=       4 diagonalized for initial guess.
 HarFok:  IExCor=  402 AccDes= 0.00D+00 IRadAn=         4 IDoV= 1 UseB2=F ITyADJ=14
 ICtDFT=  3500011 ScaDFX=  1.000000  1.000000  1.000000  1.000000
 FoFCou: FMM=F IPFlag=           0 FMFlag=      100000 FMFlg1=           0
         NFxFlg=           0 DoJE=T BraDBF=F KetDBF=T FulRan=T
         wScrn=  0.000000 ICntrl=     500 IOpCl=  0 I1Cent=   200000004 NGrid=           0
         NMat0=    1 NMatS0=      1 NMatT0=    0 NMatD0=    1 NMtDS0=    0 NMtDT0=    0
 Petite list used in FoFCou.
 Keep R1 ints in memory in canonical form, NReq=19634110.
 Requested convergence on RMS density matrix=1.00D-08 within 128 cycles.
 Requested convergence on MAX density matrix=1.00D-06.
 Requested convergence on             energy=1.00D-06.
 No special actions if energy rises.
 Integral accuracy reduced to 1.0D-05 until final iterations.
 Initial convergence to 1.0D-05 achieved.  Increase integral accuracy.
 SCF Done:  E(RB3LYP) =  -643.646278784     A.U. after   17 cycles
            NFock= 17  Conv=0.83D-08     -V/T= 2.0030

 **********************************************************************

            Population analysis using the SCF density.

 **********************************************************************

 Orbital symmetries:
       Occupied  (A) (A) (A) (A) (A) (A) (A) (A) (A) (A) (A) (A)
                 (A) (A) (A) (A) (A) (A) (A) (A) (A) (A) (A) (A)
                 (A)
       Virtual   (A) (A) (A) (A) (A) (A) (A) (A) (A) (A) (A) (A)
                 (A) (A) (A) (A) (A) (A) (A) (A) (A) (A) (A) (A)
                 (A) (A) (A) (A) (A) (A) (A) (A) (A) (A) (A) (A)
                 (A) (A) (A) (A) (A) (A) (A) (A) (A) (A) (A) (A)
                 (A) (A) (A) (A) (A) (A) (A) (A) (A) (A) (A) (A)
                 (A) (A) (A) (A) (A) (A) (A) (A) (A) (A) (A) (A)
                 (A) (A) (A) (A) (A) (A) (A) (A) (A) (A) (A) (A)
                 (A)
 The electronic state is 1-A.
 Alpha  occ. eigenvalues --  -77.00317 -18.98565 -18.97732 -18.86234 -18.86152
 Alpha  occ. eigenvalues --   -6.47583  -4.63976  -4.63832  -4.63523  -0.87949
 Alpha  occ. eigenvalues --   -0.85424  -0.69873  -0.66308  -0.44212  -0.36680
 Alpha  occ. eigenvalues --   -0.28243  -0.25222  -0.20371  -0.19948  -0.17155
 Alpha  occ. eigenvalues --   -0.12894  -0.07641  -0.07057  -0.04423  -0.03250
 Alpha virt. eigenvalues --    0.15543   0.19841   0.24851   0.27270   0.28780
 Alpha virt. eigenvalues --    0.31579   0.39145   0.39822   0.40499   0.53361
 Alpha virt. eigenvalues --    0.54762   0.57157   0.77493   0.78035   0.92383
 Alpha virt. eigenvalues --    0.93577   0.95257   0.99079   1.02029   1.03029
 Alpha virt. eigenvalues --    1.05202   1.06367   1.08514   1.09426   1.10552
 Alpha virt. eigenvalues --    1.12969   1.18850   1.20912   1.21929   1.38385
 Alpha virt. eigenvalues --    1.40923   1.48468   1.50892   1.52841   1.63053
 Alpha virt. eigenvalues --    1.65163   1.78127   1.81806   1.86759   1.88044
 Alpha virt. eigenvalues --    2.10714   2.12353   2.54310   2.55321   2.98374
 Alpha virt. eigenvalues --    2.99660   3.08734   3.09148   3.09359   3.09437
 Alpha virt. eigenvalues --    3.09763   3.13414   3.15329   3.18030   3.21303
 Alpha virt. eigenvalues --    3.25565   3.25778   3.27168   3.27938   3.44148
 Alpha virt. eigenvalues --    3.51082   3.56408   3.86525   3.89894   4.91002
 Alpha virt. eigenvalues --    4.94121   4.96428   4.99928   5.02689   5.06032
 Alpha virt. eigenvalues --    5.07994   5.15663   5.18496   5.20048   5.57551
 Alpha virt. eigenvalues --    5.57895   6.97661  13.98292  13.99434  14.00377
 Alpha virt. eigenvalues --   49.93890  49.96279  49.99411  50.08885 162.97072
          Condensed to atoms (all electrons):
               1          2          3          4          5          6
     1  P   12.736250   0.436806   0.172055  -0.018679   0.181854  -0.031062
     2  O    0.436806   8.385703  -0.024340   0.004274  -0.024541   0.000832
     3  O    0.172055  -0.024340   8.146815   0.292890  -0.011384  -0.000904
     4  H   -0.018679   0.004274   0.292890   0.463732  -0.001261  -0.000328
     5  O    0.181854  -0.024541  -0.011384  -0.001261   8.144722   0.321222
     6  H   -0.031062   0.000832  -0.000904  -0.000328   0.321222   0.427284
     7  O    0.458591  -0.030663  -0.020665  -0.000878  -0.024789  -0.001019
               7
     1  P    0.458591
     2  O   -0.030663
     3  O   -0.020665
     4  H   -0.000878
     5  O   -0.024789
     6  H   -0.001019
     7  O    8.339473
 Mulliken charges:
               1
     1  P    1.064186
     2  O   -0.748071
     3  O   -0.554467
     4  H    0.260249
     5  O   -0.585823
     6  H    0.283976
     7  O   -0.720050
 Sum of Mulliken charges =  -1.00000
 Mulliken charges with hydrogens summed into heavy atoms:
               1
     1  P    1.064186
     2  O   -0.748071
     3  O   -0.294219
     5  O   -0.301847
     7  O   -0.720050
 Electronic spatial extent (au):  <R**2>=            466.3308
 Charge=             -1.0000 electrons
 Dipole moment (field-independent basis, Debye):
    X=             -0.3356    Y=             -4.7245    Z=             -0.7499  Tot=              4.7953
 Quadrupole moment (field-independent basis, Debye-Ang):
   XX=            -33.9365   YY=            -46.1697   ZZ=            -50.6281
   XY=             -0.0034   XZ=              0.4389   YZ=              0.2828
 Traceless Quadrupole moment (field-independent basis, Debye-Ang):
   XX=              9.6416   YY=             -2.5916   ZZ=             -7.0500
   XY=             -0.0034   XZ=              0.4389   YZ=              0.2828
 Octapole moment (field-independent basis, Debye-Ang**2):
  XXX=              7.0717  YYY=            -11.9931  ZZZ=            -15.3009  XYY=             -8.6928
  XXY=            -10.6475  XXZ=              6.7605  XZZ=              0.8046  YZZ=             -4.3987
  YYZ=              6.4630  XYZ=              1.3682
 Hexadecapole moment (field-independent basis, Debye-Ang**3):
 XXXX=           -158.4490 YYYY=           -207.6319 ZZZZ=           -213.3883 XXXY=             -1.0399
 XXXZ=             -3.7959 YYYX=              1.5752 YYYZ=              4.8701 ZZZX=              2.1277
 ZZZY=              0.1055 XXYY=            -58.1011 XXZZ=            -69.6540 YYZZ=            -68.3168
 XXYZ=             -2.9374 YYXZ=              3.8279 ZZXY=             -1.3595
 N-N= 2.454839997736D+02 E-N=-2.029189439094D+03  KE= 6.417012600589D+02
 Calling FoFJK, ICntrl=      2127 FMM=F ISym2X=0 I1Cent= 0 IOpClX= 0 NMat=1 NMatS=1 NMatT=0.
 ***** Axes restored to original set *****
 -------------------------------------------------------------------
 Center     Atomic                   Forces (Hartrees/Bohr)
 Number     Number              X              Y              Z
 -------------------------------------------------------------------
      1       15          -0.099189924    0.067757762   -0.115906137
      2        8          -0.017467337   -0.058140954    0.100474540
      3        8          -0.008552308   -0.031394927   -0.015249562
      4        1           0.003127206    0.000674579   -0.006511629
      5        8           0.006265621    0.022966985    0.022406070
      6        1          -0.004124882    0.007239762   -0.003370179
      7        8           0.119941625   -0.009103207    0.018156896
 -------------------------------------------------------------------
 Cartesian Forces:  Max     0.119941625 RMS     0.052976483

 GradGradGradGradGradGradGradGradGradGradGradGradGradGradGradGradGradGrad
 Berny optimization.
 FormGI is forming the generalized inverse of G from B-inverse, IUseBI=4.
 Internal  Forces:  Max     0.119941446 RMS     0.041521424
 Search for a local minimum.
 Step number   1 out of a maximum of   30
 All quantities printed in internal units (Hartrees-Bohrs-Radians)
 Mixed Optimization -- RFO/linear search
 Second derivative matrix not updated -- first step.
 The second derivative matrix:
                          R1        R2        R3        R4        R5
           R1           0.34713
           R2           0.00000   0.34713
           R3           0.00000   0.00000   0.34713
           R4           0.00000   0.00000   0.00000   0.34713
           R5           0.00000   0.00000   0.00000   0.00000   0.55473
           R6           0.00000   0.00000   0.00000   0.00000   0.00000
           A1           0.00000   0.00000   0.00000   0.00000   0.00000
           A2           0.00000   0.00000   0.00000   0.00000   0.00000
           A3           0.00000   0.00000   0.00000   0.00000   0.00000
           A4           0.00000   0.00000   0.00000   0.00000   0.00000
           A5           0.00000   0.00000   0.00000   0.00000   0.00000
           A6           0.00000   0.00000   0.00000   0.00000   0.00000
           A7           0.00000   0.00000   0.00000   0.00000   0.00000
           A8           0.00000   0.00000   0.00000   0.00000   0.00000
           D1           0.00000   0.00000   0.00000   0.00000   0.00000
           D2           0.00000   0.00000   0.00000   0.00000   0.00000
           D3           0.00000   0.00000   0.00000   0.00000   0.00000
           D4           0.00000   0.00000   0.00000   0.00000   0.00000
           D5           0.00000   0.00000   0.00000   0.00000   0.00000
           D6           0.00000   0.00000   0.00000   0.00000   0.00000
                          R6        A1        A2        A3        A4
           R6           0.55473
           A1           0.00000   0.25000
           A2           0.00000   0.00000   0.25000
           A3           0.00000   0.00000   0.00000   0.25000
           A4           0.00000   0.00000   0.00000   0.00000   0.25000
           A5           0.00000   0.00000   0.00000   0.00000   0.00000
           A6           0.00000   0.00000   0.00000   0.00000   0.00000
           A7           0.00000   0.00000   0.00000   0.00000   0.00000
           A8           0.00000   0.00000   0.00000   0.00000   0.00000
           D1           0.00000   0.00000   0.00000   0.00000   0.00000
           D2           0.00000   0.00000   0.00000   0.00000   0.00000
           D3           0.00000   0.00000   0.00000   0.00000   0.00000
           D4           0.00000   0.00000   0.00000   0.00000   0.00000
           D5           0.00000   0.00000   0.00000   0.00000   0.00000
           D6           0.00000   0.00000   0.00000   0.00000   0.00000
                          A5        A6        A7        A8        D1
           A5           0.25000
           A6           0.00000   0.25000
           A7           0.00000   0.00000   0.16000
           A8           0.00000   0.00000   0.00000   0.16000
           D1           0.00000   0.00000   0.00000   0.00000   0.01958
           D2           0.00000   0.00000   0.00000   0.00000   0.00000
           D3           0.00000   0.00000   0.00000   0.00000   0.00000
           D4           0.00000   0.00000   0.00000   0.00000   0.00000
           D5           0.00000   0.00000   0.00000   0.00000   0.00000
           D6           0.00000   0.00000   0.00000   0.00000   0.00000
                          D2        D3        D4        D5        D6
           D2           0.01958
           D3           0.00000   0.01958
           D4           0.00000   0.00000   0.01958
           D5           0.00000   0.00000   0.00000   0.01958
           D6           0.00000   0.00000   0.00000   0.00000   0.01958
 ITU=  0
     Eigenvalues ---    0.01958   0.01958   0.12801   0.14247   0.16000
     Eigenvalues ---    0.16000   0.18716   0.22440   0.25000   0.34713
     Eigenvalues ---    0.34713   0.34713   0.34713   0.55473   0.55473
 RFO step:  Lambda=-8.80793303D-02 EMin= 1.95780423D-02
 Linear search not attempted -- first point.
 Maximum step size (   0.300) exceeded in Quadratic search.
    -- Step size scaled by   0.660
 Iteration  1 RMS(Cart)=  0.08064480 RMS(Int)=  0.00304059
 Iteration  2 RMS(Cart)=  0.00350421 RMS(Int)=  0.00102350
 Iteration  3 RMS(Cart)=  0.00000614 RMS(Int)=  0.00102347
 Iteration  4 RMS(Cart)=  0.00000001 RMS(Int)=  0.00102347
 Variable       Old X    -DE/DX   Delta X   Delta X   Delta X     New X
                                 (Linear)    (Quad)   (Total)
    R1        3.23143  -0.11527   0.00000  -0.17472  -0.17472   3.05671
    R2        3.23143  -0.03406   0.00000  -0.05163  -0.05163   3.17980
    R3        3.23143  -0.02776   0.00000  -0.04208  -0.04208   3.18935
    R4        3.23143  -0.11994   0.00000  -0.18181  -0.18181   3.04962
    R5        1.81414   0.00411   0.00000   0.00422   0.00422   1.81836
    R6        1.81414   0.00072   0.00000   0.00074   0.00074   1.81488
    A1        1.91063   0.00109   0.00000  -0.00369  -0.00570   1.90494
    A2        1.91063   0.00104   0.00000  -0.00339  -0.00549   1.90514
    A3        1.91063   0.03219   0.00000   0.09850   0.09766   2.00829
    A4        1.91063  -0.04065   0.00000  -0.09717  -0.09924   1.81139
    A5        1.91063   0.00168   0.00000  -0.00047  -0.00200   1.90863
    A6        1.91063   0.00465   0.00000   0.00621   0.00448   1.91511
    A7        1.91114  -0.01026   0.00000  -0.02728  -0.02728   1.88386
    A8        1.91114  -0.01624   0.00000  -0.04318  -0.04318   1.86795
    D1       -0.68749   0.02247   0.00000   0.06812   0.06724  -0.62025
    D2        1.40691  -0.00049   0.00000   0.00221   0.00240   1.40931
    D3       -2.78188  -0.01866   0.00000  -0.04998  -0.04929  -2.83118
    D4       -0.98716  -0.02184   0.00000  -0.06216  -0.06141  -1.04857
    D5       -3.08155   0.00108   0.00000   0.00393   0.00357  -3.07798
    D6        1.10724   0.02107   0.00000   0.06020   0.05980   1.16704
         Item               Value     Threshold  Converged?
 Maximum Force            0.119941     0.000450     NO 
 RMS     Force            0.041521     0.000300     NO 
 Maximum Displacement     0.130722     0.001800     NO 
 RMS     Displacement     0.081774     0.001200     NO 
 Predicted change in Energy=-4.349627D-02
 GradGradGradGradGradGradGradGradGradGradGradGradGradGradGradGradGradGrad

                          Input orientation:                          
 ---------------------------------------------------------------------
 Center     Atomic      Atomic             Coordinates (Angstroms)
 Number     Number       Type             X           Y           Z
 ---------------------------------------------------------------------
      1         15           0       -1.018433   -0.714233   -1.143775
      2          8           0       -0.397663    0.037106   -2.434733
      3          8           0       -0.429116    0.013203    0.254422
      4          1           0        0.479603    0.282340    0.088026
      5          8           0       -0.405222   -2.284847   -1.069067
      6          1           0       -0.667592   -2.728017   -1.879693
      7          8           0       -2.630674   -0.755606   -1.086434
 ---------------------------------------------------------------------
                    Distance matrix (angstroms):
                    1          2          3          4          5
     1  P    0.000000
     2  O    1.617540   0.000000
     3  O    1.682680   2.689445   0.000000
     4  H    2.180506   2.682172   0.962234   0.000000
     5  O    1.687732   2.693801   2.652024   2.951649   0.000000
     6  H    2.172554   2.833167   3.482184   3.774947   0.960392
     7  O    1.613791   2.726287   2.689948   3.482889   2.700282
                    6          7
     6  H    0.000000
     7  O    2.893675   0.000000
 Stoichiometry    H2O4P(1-)
 Framework group  C1[X(H2O4P)]
 Deg. of freedom    15
 Full point group                 C1      NOp   1
 Largest Abelian subgroup         C1      NOp   1
 Largest concise Abelian subgroup C1      NOp   1
                         Standard orientation:                         
 ---------------------------------------------------------------------
 Center     Atomic      Atomic             Coordinates (Angstroms)
 Number     Number       Type             X           Y           Z
 ---------------------------------------------------------------------
      1         15           0        0.018667    0.086981    0.039034
      2          8           0       -0.149135   -0.015509    1.644579
      3          8           0       -1.472166   -0.189991   -0.690428
      4          1           0       -1.938157   -0.851968   -0.170300
      5          8           0        0.974834   -1.194714   -0.500820
      6          1           0        1.826178   -1.113992   -0.063727
      7          8           0        0.625463    1.482869   -0.497267
 ---------------------------------------------------------------------
 Rotational constants (GHZ):      4.2246062      4.1222695      4.0617612
 Standard basis: 6-311G(d,p) (5D, 7F)
 There are   115 symmetry adapted cartesian basis functions of A   symmetry.
 There are   110 symmetry adapted basis functions of A   symmetry.
   110 basis functions,   190 primitive gaussians,   115 cartesian basis functions
    25 alpha electrons       25 beta electrons
       nuclear repulsion energy       254.1035206810 Hartrees.
 NAtoms=    7 NActive=    7 NUniq=    7 SFac= 1.00D+00 NAtFMM=   60 NAOKFM=F Big=F
 Integral buffers will be    131072 words long.
 Raffenetti 2 integral format.
 Two-electron integral symmetry is turned on.
 One-electron integrals computed using PRISM.
 NBasis=   110 RedAO= T EigKep=  1.20D-02  NBF=   110
 NBsUse=   110 1.00D-06 EigRej= -1.00D+00 NBFU=   110
 Initial guess from the checkpoint file:  "H3PO42-A.chk"
 B after Tr=     0.000000    0.000000    0.000000
         Rot=    0.996958   -0.065298    0.019604    0.037773 Ang=  -8.94 deg.
 ExpMin= 6.85D-02 ExpMax= 7.75D+04 ExpMxC= 2.65D+03 IAcc=2 IRadAn=         4 AccDes= 0.00D+00
 Harris functional with IExCor=  402 and IRadAn=       4 diagonalized for initial guess.
 HarFok:  IExCor=  402 AccDes= 0.00D+00 IRadAn=         4 IDoV= 1 UseB2=F ITyADJ=14
 ICtDFT=  3500011 ScaDFX=  1.000000  1.000000  1.000000  1.000000
 FoFCou: FMM=F IPFlag=           0 FMFlag=      100000 FMFlg1=           0
         NFxFlg=           0 DoJE=T BraDBF=F KetDBF=T FulRan=T
         wScrn=  0.000000 ICntrl=     500 IOpCl=  0 I1Cent=   200000004 NGrid=           0
         NMat0=    1 NMatS0=      1 NMatT0=    0 NMatD0=    1 NMtDS0=    0 NMtDT0=    0
 Petite list used in FoFCou.
 Keep R1 ints in memory in canonical form, NReq=19634110.
 Requested convergence on RMS density matrix=1.00D-08 within 128 cycles.
 Requested convergence on MAX density matrix=1.00D-06.
 Requested convergence on             energy=1.00D-06.
 No special actions if energy rises.
 Integral accuracy reduced to 1.0D-05 until final iterations.
 Initial convergence to 1.0D-05 achieved.  Increase integral accuracy.
 SCF Done:  E(RB3LYP) =  -643.696712683     A.U. after   13 cycles
            NFock= 13  Conv=0.87D-08     -V/T= 2.0026
 Calling FoFJK, ICntrl=      2127 FMM=F ISym2X=0 I1Cent= 0 IOpClX= 0 NMat=1 NMatS=1 NMatT=0.
 ***** Axes restored to original set *****
 -------------------------------------------------------------------
 Center     Atomic                   Forces (Hartrees/Bohr)
 Number     Number              X              Y              Z
 -------------------------------------------------------------------
      1       15          -0.069891619    0.049194047   -0.078635991
      2        8          -0.018226885   -0.042388811    0.072036160
      3        8          -0.003187173   -0.018842065   -0.009149983
      4        1           0.000082009    0.000549066   -0.003826416
      5        8           0.003233671    0.012734308    0.012410126
      6        1          -0.001718697    0.002812716   -0.001948491
      7        8           0.089708693   -0.004059261    0.009114596
 -------------------------------------------------------------------
 Cartesian Forces:  Max     0.089708693 RMS     0.037644388

 GradGradGradGradGradGradGradGradGradGradGradGradGradGradGradGradGradGrad
 Berny optimization.
 Using GEDIIS/GDIIS optimizer.
 FormGI is forming the generalized inverse of G from B-inverse, IUseBI=4.
 Internal  Forces:  Max     0.089194726 RMS     0.029627198
 Search for a local minimum.
 Step number   2 out of a maximum of   30
 All quantities printed in internal units (Hartrees-Bohrs-Radians)
 Mixed Optimization -- RFO/linear search
 Update second derivatives using D2CorX and points    1    2
 DE= -5.04D-02 DEPred=-4.35D-02 R= 1.16D+00
 TightC=F SS=  1.41D+00  RLast= 3.23D-01 DXNew= 5.0454D-01 9.6950D-01
 Trust test= 1.16D+00 RLast= 3.23D-01 DXMaxT set to 5.05D-01
 The second derivative matrix:
                          R1        R2        R3        R4        R5
           R1           0.27719
           R2          -0.01148   0.34796
           R3          -0.00454   0.00289   0.35170
           R4          -0.07567  -0.01327  -0.00606   0.26552
           R5          -0.00094  -0.00123  -0.00150  -0.00068   0.55515
           R6           0.00102   0.00033   0.00028   0.00106  -0.00005
           A1          -0.00525  -0.00192  -0.00176  -0.00534   0.00035
           A2          -0.00681  -0.00266  -0.00251  -0.00688   0.00052
           A3           0.03035   0.00563   0.00284   0.03263   0.00015
           A4          -0.02584  -0.00342  -0.00058  -0.02821  -0.00067
           A5          -0.00347  -0.00142  -0.00137  -0.00349   0.00029
           A6          -0.00323  -0.00187  -0.00200  -0.00308   0.00049
           A7          -0.00156   0.00077   0.00127  -0.00201  -0.00043
           A8           0.00273   0.00360   0.00440   0.00195  -0.00121
           D1          -0.01112  -0.00555  -0.00572  -0.01085   0.00133
           D2           0.00091   0.00040   0.00040   0.00091  -0.00009
           D3           0.01038   0.00510   0.00522   0.01016  -0.00121
           D4           0.01250   0.00615   0.00630   0.01223  -0.00146
           D5          -0.00070  -0.00035  -0.00035  -0.00069   0.00008
           D6          -0.01143  -0.00565  -0.00579  -0.01118   0.00134
                          R6        A1        A2        A3        A4
           R6           0.55473
           A1           0.00001   0.25002
           A2           0.00001   0.00009   0.25022
           A3          -0.00041   0.00202   0.00259   0.23699
           A4           0.00043  -0.00226  -0.00298   0.01140   0.24070
           A5           0.00000   0.00007   0.00015   0.00130  -0.00154
           A6          -0.00003   0.00028   0.00045   0.00108  -0.00160
           A7           0.00008  -0.00052  -0.00074   0.00092  -0.00027
           A8           0.00015  -0.00103  -0.00153  -0.00043   0.00196
           D1          -0.00006   0.00063   0.00104   0.00393  -0.00523
           D2           0.00000  -0.00003  -0.00006  -0.00033   0.00041
           D3           0.00005  -0.00055  -0.00092  -0.00369   0.00486
           D4           0.00006  -0.00067  -0.00112  -0.00445   0.00586
           D5           0.00000   0.00004   0.00006   0.00025  -0.00033
           D6          -0.00006   0.00062   0.00103   0.00406  -0.00536
                          A5        A6        A7        A8        D1
           A5           0.25010
           A6           0.00026   0.25051
           A7          -0.00040  -0.00058   0.16035
           A8          -0.00086  -0.00143   0.00125   0.16357
           D1           0.00062   0.00132  -0.00166  -0.00391   0.02294
           D2          -0.00003  -0.00008   0.00012   0.00026  -0.00020
           D3          -0.00055  -0.00119   0.00151   0.00354  -0.00301
           D4          -0.00067  -0.00144   0.00183   0.00428  -0.00365
           D5           0.00004   0.00008  -0.00010  -0.00024   0.00021
           D6           0.00062   0.00133  -0.00168  -0.00395   0.00337
                          D2        D3        D4        D5        D6
           D2           0.01959
           D3           0.00018   0.02228
           D4           0.00022   0.00327   0.02354
           D5          -0.00001  -0.00018  -0.00022   0.01959
           D6          -0.00020  -0.00302  -0.00366   0.00021   0.02296
 ITU=  1  0
 Use linear search instead of GDIIS.
     Eigenvalues ---    0.01958   0.01958   0.13975   0.14373   0.15985
     Eigenvalues ---    0.16535   0.17423   0.20076   0.21761   0.25311
     Eigenvalues ---    0.34713   0.34713   0.35555   0.55473   0.55520
 RFO step:  Lambda=-5.75696094D-03 EMin= 1.95765917D-02
 Quartic linear search produced a step of  1.24799.
 Iteration  1 RMS(Cart)=  0.07132149 RMS(Int)=  0.02840508
 Iteration  2 RMS(Cart)=  0.02766494 RMS(Int)=  0.00178221
 Iteration  3 RMS(Cart)=  0.00005813 RMS(Int)=  0.00178145
 Iteration  4 RMS(Cart)=  0.00000022 RMS(Int)=  0.00178145
 Variable       Old X    -DE/DX   Delta X   Delta X   Delta X     New X
                                 (Linear)    (Quad)   (Total)
    R1        3.05671  -0.08418  -0.21805  -0.05855  -0.27661   2.78010
    R2        3.17980  -0.01978  -0.06443   0.01520  -0.04923   3.13058
    R3        3.18935  -0.01345  -0.05252   0.02941  -0.02311   3.16624
    R4        3.04962  -0.08919  -0.22689  -0.07117  -0.29806   2.75156
    R5        1.81836   0.00089   0.00527  -0.00646  -0.00119   1.81717
    R6        1.81488   0.00082   0.00092   0.00152   0.00244   1.81732
    A1        1.90494  -0.00017  -0.00711   0.01255   0.00180   1.90674
    A2        1.90514  -0.00116  -0.00685   0.00088  -0.00943   1.89571
    A3        2.00829   0.02089   0.12188  -0.06061   0.05974   2.06803
    A4        1.81139  -0.02640  -0.12386   0.05257  -0.07475   1.73663
    A5        1.90863   0.00033  -0.00250   0.00825   0.00296   1.91159
    A6        1.91511   0.00157   0.00559  -0.00179   0.00090   1.91602
    A7        1.88386  -0.00609  -0.03404   0.02179  -0.01226   1.87160
    A8        1.86795  -0.00677  -0.05389   0.07359   0.01970   1.88765
    D1       -0.62025   0.01479   0.08391  -0.04788   0.03459  -0.58565
    D2        1.40931  -0.00004   0.00300  -0.01456  -0.01125   1.39805
    D3       -2.83118  -0.01179  -0.06152   0.01444  -0.04595  -2.87713
    D4       -1.04857  -0.01352  -0.07664   0.04399  -0.03096  -1.07953
    D5       -3.07798   0.00061   0.00446   0.00245   0.00621  -3.07177
    D6        1.16704   0.01339   0.07464  -0.03389   0.03977   1.20681
         Item               Value     Threshold  Converged?
 Maximum Force            0.089195     0.000450     NO 
 RMS     Force            0.029627     0.000300     NO 
 Maximum Displacement     0.228039     0.001800     NO 
 RMS     Displacement     0.092074     0.001200     NO 
 Predicted change in Energy=-4.011519D-02
 GradGradGradGradGradGradGradGradGradGradGradGradGradGradGradGradGradGrad

                          Input orientation:                          
 ---------------------------------------------------------------------
 Center     Atomic      Atomic             Coordinates (Angstroms)
 Number     Number       Type             X           Y           Z
 ---------------------------------------------------------------------
      1         15           0       -1.057583   -0.679275   -1.179078
      2          8           0       -0.448238   -0.007390   -2.337353
      3          8           0       -0.452222   -0.020489    0.215184
      4          1           0        0.460362    0.227188    0.040460
      5          8           0       -0.415977   -2.222263   -1.057230
      6          1           0       -0.645437   -2.706128   -1.856014
      7          8           0       -2.510001   -0.741698   -1.097221
 ---------------------------------------------------------------------
                    Distance matrix (angstroms):
                    1          2          3          4          5
     1  P    0.000000
     2  O    1.471167   0.000000
     3  O    1.656630   2.552574   0.000000
     4  H    2.147814   2.556282   0.961604   0.000000
     5  O    1.675504   2.558402   2.543257   2.823597   0.000000
     6  H    2.176290   2.748411   3.397035   3.663843   0.961683
     7  O    1.456062   2.515553   2.544996   3.325074   2.564880
                    6          7
     6  H    0.000000
     7  O    2.812713   0.000000
 Stoichiometry    H2O4P(1-)
 Framework group  C1[X(H2O4P)]
 Deg. of freedom    15
 Full point group                 C1      NOp   1
 Largest Abelian subgroup         C1      NOp   1
 Largest concise Abelian subgroup C1      NOp   1
                         Standard orientation:                         
 ---------------------------------------------------------------------
 Center     Atomic      Atomic             Coordinates (Angstroms)
 Number     Number       Type             X           Y           Z
 ---------------------------------------------------------------------
      1         15           0        0.017539    0.147446    0.022327
      2          8           0       -0.057823    0.463341    1.457201
      3          8           0       -1.417350   -0.521377   -0.465727
      4          1           0       -1.759417   -1.032590    0.273417
      5          8           0        1.023526   -1.176819   -0.181694
      6          1           0        1.900501   -0.938154    0.132611
      7          8           0        0.401126    1.204737   -0.902397
 ---------------------------------------------------------------------
 Rotational constants (GHZ):      4.7309528      4.6220275      4.4305729
 Standard basis: 6-311G(d,p) (5D, 7F)
 There are   115 symmetry adapted cartesian basis functions of A   symmetry.
 There are   110 symmetry adapted basis functions of A   symmetry.
   110 basis functions,   190 primitive gaussians,   115 cartesian basis functions
    25 alpha electrons       25 beta electrons
       nuclear repulsion energy       267.8160836667 Hartrees.
 NAtoms=    7 NActive=    7 NUniq=    7 SFac= 1.00D+00 NAtFMM=   60 NAOKFM=F Big=F
 Integral buffers will be    131072 words long.
 Raffenetti 2 integral format.
 Two-electron integral symmetry is turned on.
 One-electron integrals computed using PRISM.
 NBasis=   110 RedAO= T EigKep=  1.02D-02  NBF=   110
 NBsUse=   110 1.00D-06 EigRej= -1.00D+00 NBFU=   110
 Initial guess from the checkpoint file:  "H3PO42-A.chk"
 B after Tr=     0.000000    0.000000    0.000000
         Rot=    0.985499    0.158856   -0.033423   -0.049396 Ang=  19.54 deg.
 ExpMin= 6.85D-02 ExpMax= 7.75D+04 ExpMxC= 2.65D+03 IAcc=2 IRadAn=         4 AccDes= 0.00D+00
 Harris functional with IExCor=  402 and IRadAn=       4 diagonalized for initial guess.
 HarFok:  IExCor=  402 AccDes= 0.00D+00 IRadAn=         4 IDoV= 1 UseB2=F ITyADJ=14
 ICtDFT=  3500011 ScaDFX=  1.000000  1.000000  1.000000  1.000000
 FoFCou: FMM=F IPFlag=           0 FMFlag=      100000 FMFlg1=           0
         NFxFlg=           0 DoJE=T BraDBF=F KetDBF=T FulRan=T
         wScrn=  0.000000 ICntrl=     500 IOpCl=  0 I1Cent=   200000004 NGrid=           0
         NMat0=    1 NMatS0=      1 NMatT0=    0 NMatD0=    1 NMtDS0=    0 NMtDT0=    0
 Petite list used in FoFCou.
 Keep R1 ints in memory in canonical form, NReq=19634110.
 Requested convergence on RMS density matrix=1.00D-08 within 128 cycles.
 Requested convergence on MAX density matrix=1.00D-06.
 Requested convergence on             energy=1.00D-06.
 No special actions if energy rises.
 Integral accuracy reduced to 1.0D-05 until final iterations.
 Initial convergence to 1.0D-05 achieved.  Increase integral accuracy.
 SCF Done:  E(RB3LYP) =  -643.719519986     A.U. after   13 cycles
            NFock= 13  Conv=0.75D-08     -V/T= 2.0013
 Calling FoFJK, ICntrl=      2127 FMM=F ISym2X=0 I1Cent= 0 IOpClX= 0 NMat=1 NMatS=1 NMatT=0.
 ***** Axes restored to original set *****
 -------------------------------------------------------------------
 Center     Atomic                   Forces (Hartrees/Bohr)
 Number     Number              X              Y              Z
 -------------------------------------------------------------------
      1       15           0.014499154   -0.003911578    0.003026784
      2        8           0.028768850    0.016399041   -0.027988450
      3        8           0.003037857   -0.005217512    0.004598419
      4        1          -0.000400341    0.000464192   -0.001299528
      5        8           0.005523221   -0.003756351    0.007241621
      6        1          -0.000815065    0.003401953    0.000007927
      7        8          -0.050613676   -0.007379744    0.014413226
 -------------------------------------------------------------------
 Cartesian Forces:  Max     0.050613676 RMS     0.015595356

 GradGradGradGradGradGradGradGradGradGradGradGradGradGradGradGradGradGrad
 Berny optimization.
 Using GEDIIS/GDIIS optimizer.
 FormGI is forming the generalized inverse of G from B-inverse, IUseBI=4.
 Internal  Forces:  Max     0.051612988 RMS     0.016296593
 Search for a local minimum.
 Step number   3 out of a maximum of   30
 All quantities printed in internal units (Hartrees-Bohrs-Radians)
 Mixed Optimization -- RFO/linear search
 Update second derivatives using D2CorX and points    2    3
 DE= -2.28D-02 DEPred=-4.01D-02 R= 5.69D-01
 TightC=F SS=  1.41D+00  RLast= 4.29D-01 DXNew= 8.4853D-01 1.2873D+00
 Trust test= 5.69D-01 RLast= 4.29D-01 DXMaxT set to 8.49D-01
 The second derivative matrix:
                          R1        R2        R3        R4        R5
           R1           0.39361
           R2           0.00634   0.35058
           R3           0.01167   0.00543   0.35392
           R4           0.05889   0.00751   0.01257   0.42072
           R5          -0.00217  -0.00144  -0.00166  -0.00207   0.55516
           R6          -0.00160  -0.00009  -0.00007  -0.00194  -0.00003
           A1          -0.00187  -0.00117  -0.00143  -0.00187   0.00036
           A2          -0.00434  -0.00214  -0.00225  -0.00429   0.00052
           A3           0.01640   0.00303   0.00116   0.01736   0.00022
           A4          -0.01154  -0.00106   0.00131  -0.01200  -0.00080
           A5          -0.00373  -0.00133  -0.00148  -0.00403   0.00032
           A6          -0.00214  -0.00157  -0.00192  -0.00205   0.00050
           A7           0.00308   0.00152   0.00190   0.00328  -0.00047
           A8           0.00578   0.00417   0.00477   0.00531  -0.00123
           D1          -0.00571  -0.00426  -0.00523  -0.00547   0.00135
           D2          -0.00015   0.00018   0.00028  -0.00021  -0.00009
           D3           0.00307   0.00348   0.00448   0.00261  -0.00121
           D4           0.00383   0.00425   0.00542   0.00326  -0.00146
           D5          -0.00086  -0.00035  -0.00039  -0.00092   0.00009
           D6          -0.00224  -0.00369  -0.00483  -0.00158   0.00134
                          R6        A1        A2        A3        A4
           R6           0.55478
           A1          -0.00001   0.24958
           A2          -0.00002  -0.00017   0.25006
           A3          -0.00019   0.00269   0.00295   0.23657
           A4           0.00014  -0.00224  -0.00292   0.01047   0.24217
           A5           0.00003  -0.00023  -0.00004   0.00192  -0.00179
           A6          -0.00003   0.00001   0.00028   0.00154  -0.00168
           A7          -0.00001  -0.00047  -0.00069   0.00054   0.00024
           A8           0.00010  -0.00116  -0.00160  -0.00037   0.00218
           D1          -0.00009  -0.00029   0.00049   0.00540  -0.00535
           D2           0.00001   0.00007   0.00000  -0.00046   0.00038
           D3           0.00012   0.00037  -0.00038  -0.00503   0.00478
           D4           0.00014   0.00039  -0.00049  -0.00597   0.00574
           D5           0.00000  -0.00002   0.00003   0.00037  -0.00039
           D6          -0.00015  -0.00039   0.00045   0.00546  -0.00516
                          A5        A6        A7        A8        D1
           A5           0.24993
           A6           0.00009   0.25035
           A7          -0.00046  -0.00058   0.16052
           A8          -0.00098  -0.00152   0.00134   0.16356
           D1           0.00002   0.00078  -0.00162  -0.00420   0.02106
           D2           0.00004  -0.00002   0.00010   0.00028   0.00001
           D3           0.00008  -0.00064   0.00141   0.00380  -0.00111
           D4           0.00007  -0.00080   0.00170   0.00458  -0.00146
           D5           0.00001   0.00005  -0.00012  -0.00027   0.00009
           D6          -0.00010   0.00071  -0.00152  -0.00421   0.00127
                          D2        D3        D4        D5        D6
           D2           0.01957
           D3          -0.00002   0.02039
           D4          -0.00002   0.00110   0.02104
           D5           0.00000  -0.00006  -0.00008   0.01959
           D6           0.00002  -0.00095  -0.00128   0.00007   0.02070
 ITU=  1  1  0
 Use linear search instead of GDIIS.
     Eigenvalues ---    0.01957   0.01958   0.15000   0.15471   0.16002
     Eigenvalues ---    0.16382   0.16705   0.21187   0.25088   0.34600
     Eigenvalues ---    0.34713   0.35535   0.47193   0.55485   0.55533
 RFO step:  Lambda=-8.47472488D-03 EMin= 1.95688792D-02
 Quartic linear search produced a step of -0.21084.
 Iteration  1 RMS(Cart)=  0.06677397 RMS(Int)=  0.00226185
 Iteration  2 RMS(Cart)=  0.00247120 RMS(Int)=  0.00108543
 Iteration  3 RMS(Cart)=  0.00000328 RMS(Int)=  0.00108542
 Iteration  4 RMS(Cart)=  0.00000001 RMS(Int)=  0.00108542
 Variable       Old X    -DE/DX   Delta X   Delta X   Delta X     New X
                                 (Linear)    (Quad)   (Total)
    R1        2.78010   0.04144   0.05832   0.00399   0.06231   2.84241
    R2        3.13058   0.00185   0.01038  -0.01121  -0.00083   3.12974
    R3        3.16624   0.00266   0.00487  -0.00103   0.00384   3.17008
    R4        2.75156   0.05161   0.06285   0.01959   0.08244   2.83399
    R5        1.81717  -0.00003   0.00025  -0.00061  -0.00036   1.81681
    R6        1.81732  -0.00153  -0.00051  -0.00147  -0.00198   1.81533
    A1        1.90674  -0.00204  -0.00038  -0.01551  -0.01766   1.88908
    A2        1.89571  -0.00188   0.00199  -0.01838  -0.01834   1.87738
    A3        2.06803   0.01663  -0.01260   0.12501   0.11197   2.18000
    A4        1.73663  -0.01497   0.01576  -0.10550  -0.09177   1.64487
    A5        1.91159  -0.00296  -0.00062  -0.01800  -0.02025   1.89134
    A6        1.91602  -0.00029  -0.00019  -0.00792  -0.01013   1.90589
    A7        1.87160  -0.00199   0.00258  -0.01754  -0.01496   1.85665
    A8        1.88765  -0.00567  -0.00415  -0.02242  -0.02658   1.86107
    D1       -0.58565   0.00972  -0.00729   0.08290   0.07432  -0.51134
    D2        1.39805   0.00014   0.00237   0.00931   0.01160   1.40966
    D3       -2.87713  -0.00825   0.00969  -0.05539  -0.04433  -2.92147
    D4       -1.07953  -0.00964   0.00653  -0.05656  -0.04893  -1.12846
    D5       -3.07177  -0.00010  -0.00131   0.01362   0.01213  -3.05964
    D6        1.20681   0.01041  -0.00839   0.08653   0.07723   1.28405
         Item               Value     Threshold  Converged?
 Maximum Force            0.051613     0.000450     NO 
 RMS     Force            0.016297     0.000300     NO 
 Maximum Displacement     0.123687     0.001800     NO 
 RMS     Displacement     0.067754     0.001200     NO 
 Predicted change in Energy=-6.869981D-03
 GradGradGradGradGradGradGradGradGradGradGradGradGradGradGradGradGradGrad

                          Input orientation:                          
 ---------------------------------------------------------------------
 Center     Atomic      Atomic             Coordinates (Angstroms)
 Number     Number       Type             X           Y           Z
 ---------------------------------------------------------------------
      1         15           0       -1.087380   -0.657998   -1.212037
      2          8           0       -0.386388    0.014117   -2.360647
      3          8           0       -0.453143   -0.067423    0.199320
      4          1           0        0.457261    0.174496    0.007093
      5          8           0       -0.408442   -2.180640   -1.025676
      6          1           0       -0.615550   -2.673588   -1.823752
      7          8           0       -2.575454   -0.759019   -1.055554
 ---------------------------------------------------------------------
                    Distance matrix (angstroms):
                    1          2          3          4          5
     1  P    0.000000
     2  O    1.504139   0.000000
     3  O    1.656190   2.562135   0.000000
     4  H    2.136643   2.518662   0.961412   0.000000
     5  O    1.677535   2.568967   2.443010   2.713433   0.000000
     6  H    2.158569   2.750369   3.303224   3.551690   0.960634
     7  O    1.499685   2.663271   2.560706   3.346346   2.591879
                    6          7
     6  H    0.000000
     7  O    2.845510   0.000000
 Stoichiometry    H2O4P(1-)
 Framework group  C1[X(H2O4P)]
 Deg. of freedom    15
 Full point group                 C1      NOp   1
 Largest Abelian subgroup         C1      NOp   1
 Largest concise Abelian subgroup C1      NOp   1
                         Standard orientation:                         
 ---------------------------------------------------------------------
 Center     Atomic      Atomic             Coordinates (Angstroms)
 Number     Number       Type             X           Y           Z
 ---------------------------------------------------------------------
      1         15           0        0.104024    0.114410    0.107298
      2          8           0       -0.369106    0.034380    1.532842
      3          8           0       -1.185792    0.531470   -0.844227
      4          1           0       -1.968633    0.184761   -0.406889
      5          8           0        0.193779   -1.452487   -0.485073
      6          1           0        0.873973   -1.900463    0.024310
      7          8           0        1.302908    0.886582   -0.356903
 ---------------------------------------------------------------------
 Rotational constants (GHZ):      4.6375938      4.5006937      4.4338174
 Standard basis: 6-311G(d,p) (5D, 7F)
 There are   115 symmetry adapted cartesian basis functions of A   symmetry.
 There are   110 symmetry adapted basis functions of A   symmetry.
   110 basis functions,   190 primitive gaussians,   115 cartesian basis functions
    25 alpha electrons       25 beta electrons
       nuclear repulsion energy       265.1961724949 Hartrees.
 NAtoms=    7 NActive=    7 NUniq=    7 SFac= 1.00D+00 NAtFMM=   60 NAOKFM=F Big=F
 Integral buffers will be    131072 words long.
 Raffenetti 2 integral format.
 Two-electron integral symmetry is turned on.
 One-electron integrals computed using PRISM.
 NBasis=   110 RedAO= T EigKep=  9.74D-03  NBF=   110
 NBsUse=   110 1.00D-06 EigRej= -1.00D+00 NBFU=   110
 Initial guess from the checkpoint file:  "H3PO42-A.chk"
 B after Tr=     0.000000    0.000000    0.000000
         Rot=    0.927300   -0.163858    0.135685    0.307985 Ang= -43.96 deg.
 ExpMin= 6.85D-02 ExpMax= 7.75D+04 ExpMxC= 2.65D+03 IAcc=2 IRadAn=         4 AccDes= 0.00D+00
 Harris functional with IExCor=  402 and IRadAn=       4 diagonalized for initial guess.
 HarFok:  IExCor=  402 AccDes= 0.00D+00 IRadAn=         4 IDoV= 1 UseB2=F ITyADJ=14
 ICtDFT=  3500011 ScaDFX=  1.000000  1.000000  1.000000  1.000000
 FoFCou: FMM=F IPFlag=           0 FMFlag=      100000 FMFlg1=           0
         NFxFlg=           0 DoJE=T BraDBF=F KetDBF=T FulRan=T
         wScrn=  0.000000 ICntrl=     500 IOpCl=  0 I1Cent=   200000004 NGrid=           0
         NMat0=    1 NMatS0=      1 NMatT0=    0 NMatD0=    1 NMtDS0=    0 NMtDT0=    0
 Petite list used in FoFCou.
 Keep R1 ints in memory in canonical form, NReq=19634110.
 Requested convergence on RMS density matrix=1.00D-08 within 128 cycles.
 Requested convergence on MAX density matrix=1.00D-06.
 Requested convergence on             energy=1.00D-06.
 No special actions if energy rises.
 Integral accuracy reduced to 1.0D-05 until final iterations.
 Initial convergence to 1.0D-05 achieved.  Increase integral accuracy.
 SCF Done:  E(RB3LYP) =  -643.724111871     A.U. after   13 cycles
            NFock= 13  Conv=0.29D-08     -V/T= 2.0017
 Calling FoFJK, ICntrl=      2127 FMM=F ISym2X=0 I1Cent= 0 IOpClX= 0 NMat=1 NMatS=1 NMatT=0.
 ***** Axes restored to original set *****
 -------------------------------------------------------------------
 Center     Atomic                   Forces (Hartrees/Bohr)
 Number     Number              X              Y              Z
 -------------------------------------------------------------------
      1       15          -0.001124223   -0.001733107    0.004811802
      2        8          -0.003507944    0.000060342   -0.000916022
      3        8          -0.000572947    0.005825968    0.004518189
      4        1          -0.000138518    0.000469053   -0.000762358
      5        8          -0.000524258   -0.005546152   -0.002925574
      6        1           0.000313911   -0.001265749   -0.001295350
      7        8           0.005553978    0.002189646   -0.003430688
 -------------------------------------------------------------------
 Cartesian Forces:  Max     0.005825968 RMS     0.002979749

 GradGradGradGradGradGradGradGradGradGradGradGradGradGradGradGradGradGrad
 Berny optimization.
 Using GEDIIS/GDIIS optimizer.
 FormGI is forming the generalized inverse of G from B-inverse, IUseBI=4.
 Internal  Forces:  Max     0.013515976 RMS     0.004307612
 Search for a local minimum.
 Step number   4 out of a maximum of   30
 All quantities printed in internal units (Hartrees-Bohrs-Radians)
 Mixed Optimization -- RFO/linear search
 Update second derivatives using D2CorX and points    2    3    4
 DE= -4.59D-03 DEPred=-6.87D-03 R= 6.68D-01
 TightC=F SS=  1.41D+00  RLast= 2.23D-01 DXNew= 1.4270D+00 6.6998D-01
 Trust test= 6.68D-01 RLast= 2.23D-01 DXMaxT set to 8.49D-01
 The second derivative matrix:
                          R1        R2        R3        R4        R5
           R1           0.42431
           R2           0.00268   0.35438
           R3           0.00711   0.00944   0.35744
           R4           0.10154  -0.00061   0.00294   0.48266
           R5          -0.00233  -0.00143  -0.00168  -0.00229   0.55516
           R6          -0.00443   0.00114   0.00115  -0.00671  -0.00002
           A1          -0.00079  -0.00233  -0.00144   0.00084   0.00041
           A2          -0.00210  -0.00387  -0.00260   0.00048   0.00058
           A3           0.02066   0.00319  -0.00589   0.02101  -0.00010
           A4          -0.02816   0.00670   0.01379  -0.03936  -0.00056
           A5          -0.00209  -0.00302  -0.00173  -0.00005   0.00038
           A6           0.00045  -0.00338  -0.00291   0.00312   0.00053
           A7           0.00371   0.00128   0.00244   0.00449  -0.00044
           A8           0.00092   0.00647   0.00780  -0.00287  -0.00119
           D1           0.00837  -0.01224  -0.01238   0.02011   0.00136
           D2          -0.00054   0.00043   0.00046  -0.00096  -0.00009
           D3          -0.01044   0.01106   0.01114  -0.02187  -0.00123
           D4          -0.01132   0.01274   0.01289  -0.02421  -0.00148
           D5          -0.00126  -0.00017  -0.00033  -0.00162   0.00008
           D6           0.01268  -0.01191  -0.01221   0.02532   0.00135
                          R6        A1        A2        A3        A4
           R6           0.55526
           A1          -0.00018   0.24790
           A2          -0.00036  -0.00212   0.24783
           A3          -0.00162   0.01446   0.01744   0.16816
           A4           0.00391  -0.01135  -0.01491   0.04876   0.23859
           A5          -0.00025  -0.00226  -0.00238   0.01670  -0.01371
           A6          -0.00051  -0.00101  -0.00080   0.01080  -0.01091
           A7           0.00002  -0.00175  -0.00222   0.00846  -0.00487
           A8           0.00110  -0.00275  -0.00379   0.00446   0.00483
           D1          -0.00282  -0.00026   0.00133   0.02009  -0.03178
           D2           0.00009   0.00013   0.00006  -0.00129   0.00139
           D3           0.00269   0.00055  -0.00093  -0.02021   0.03061
           D4           0.00303   0.00057  -0.00113  -0.02288   0.03463
           D5           0.00005   0.00015   0.00022  -0.00098   0.00081
           D6          -0.00299  -0.00036   0.00132   0.02069  -0.03255
                          A5        A6        A7        A8        D1
           A5           0.24749
           A6          -0.00108   0.25002
           A7          -0.00204  -0.00150   0.15965
           A8          -0.00312  -0.00339   0.00057   0.16483
           D1           0.00056   0.00292  -0.00262  -0.01070   0.03648
           D2           0.00011  -0.00003   0.00017   0.00051  -0.00038
           D3          -0.00017  -0.00251   0.00249   0.01008  -0.01554
           D4          -0.00024  -0.00291   0.00290   0.01160  -0.01765
           D5           0.00021   0.00013   0.00002  -0.00004  -0.00007
           D6           0.00045   0.00293  -0.00255  -0.01096   0.01726
                          D2        D3        D4        D5        D6
           D2           0.01957
           D3           0.00033   0.03386
           D4           0.00038   0.01622   0.03801
           D5           0.00000   0.00007   0.00007   0.01957
           D6          -0.00038  -0.01591  -0.01807  -0.00010   0.03728
 ITU=  1  1  1  0
 Use linear search instead of GDIIS.
     Eigenvalues ---    0.01951   0.01958   0.14908   0.15188   0.16068
     Eigenvalues ---    0.16790   0.16916   0.20378   0.26714   0.34601
     Eigenvalues ---    0.34716   0.37440   0.55138   0.55528   0.57918
 RFO step:  Lambda=-6.66450422D-04 EMin= 1.95092275D-02
 Quartic linear search produced a step of -0.21190.
 Iteration  1 RMS(Cart)=  0.03390842 RMS(Int)=  0.00040906
 Iteration  2 RMS(Cart)=  0.00053261 RMS(Int)=  0.00008591
 Iteration  3 RMS(Cart)=  0.00000005 RMS(Int)=  0.00008591
 Variable       Old X    -DE/DX   Delta X   Delta X   Delta X     New X
                                 (Linear)    (Quad)   (Total)
    R1        2.84241  -0.00090  -0.01320   0.01858   0.00538   2.84779
    R2        3.12974   0.00518   0.00018   0.01059   0.01077   3.14052
    R3        3.17008   0.00563  -0.00081   0.01081   0.01000   3.18008
    R4        2.83399  -0.00602  -0.01747   0.01287  -0.00460   2.82939
    R5        1.81681   0.00013   0.00008   0.00048   0.00055   1.81736
    R6        1.81533   0.00166   0.00042   0.00162   0.00204   1.81738
    A1        1.88908  -0.00044   0.00374  -0.00176   0.00208   1.89116
    A2        1.87738  -0.00108   0.00389  -0.00291   0.00108   1.87846
    A3        2.18000  -0.00454  -0.02373  -0.00853  -0.03232   2.14768
    A4        1.64487   0.01352   0.01945   0.03127   0.05088   1.69574
    A5        1.89134  -0.00125   0.00429  -0.00477  -0.00040   1.89095
    A6        1.90589  -0.00111   0.00215  -0.00204   0.00026   1.90615
    A7        1.85665  -0.00108   0.00317  -0.00789  -0.00472   1.85193
    A8        1.86107   0.00125   0.00563  -0.00454   0.00109   1.86216
    D1       -0.51134  -0.00345  -0.01575   0.01128  -0.00435  -0.51569
    D2        1.40966   0.00041  -0.00246   0.01962   0.01721   1.42686
    D3       -2.92147   0.00419   0.00939   0.02853   0.03775  -2.88371
    D4       -1.12846   0.00435   0.01037   0.01477   0.02503  -1.10343
    D5       -3.05964   0.00009  -0.00257   0.00578   0.00324  -3.05640
    D6        1.28405  -0.00376  -0.01637  -0.00121  -0.01750   1.26655
         Item               Value     Threshold  Converged?
 Maximum Force            0.013516     0.000450     NO 
 RMS     Force            0.004308     0.000300     NO 
 Maximum Displacement     0.077957     0.001800     NO 
 RMS     Displacement     0.033648     0.001200     NO 
 Predicted change in Energy=-6.420653D-04
 GradGradGradGradGradGradGradGradGradGradGradGradGradGradGradGradGradGrad

                          Input orientation:                          
 ---------------------------------------------------------------------
 Center     Atomic      Atomic             Coordinates (Angstroms)
 Number     Number       Type             X           Y           Z
 ---------------------------------------------------------------------
      1         15           0       -1.071782   -0.671401   -1.194222
      2          8           0       -0.388496    0.003517   -2.355516
      3          8           0       -0.452846   -0.043016    0.214297
      4          1           0        0.451935    0.215750    0.016090
      5          8           0       -0.414848   -2.213256   -1.042467
      6          1           0       -0.632483   -2.687044   -1.850586
      7          8           0       -2.560577   -0.754604   -1.058851
 ---------------------------------------------------------------------
                    Distance matrix (angstroms):
                    1          2          3          4          5
     1  P    0.000000
     2  O    1.506983   0.000000
     3  O    1.661889   2.571040   0.000000
     4  H    2.138599   2.525051   0.961704   0.000000
     5  O    1.682827   2.576601   2.508155   2.787817   0.000000
     6  H    2.164859   2.748382   3.359598   3.617548   0.961716
     7  O    1.497250   2.640838   2.563161   3.342502   2.594627
                    6          7
     6  H    0.000000
     7  O    2.842308   0.000000
 Stoichiometry    H2O4P(1-)
 Framework group  C1[X(H2O4P)]
 Deg. of freedom    15
 Full point group                 C1      NOp   1
 Largest Abelian subgroup         C1      NOp   1
 Largest concise Abelian subgroup C1      NOp   1
                         Standard orientation:                         
 ---------------------------------------------------------------------
 Center     Atomic      Atomic             Coordinates (Angstroms)
 Number     Number       Type             X           Y           Z
 ---------------------------------------------------------------------
      1         15           0        0.038653    0.134437    0.097513
      2          8           0       -0.225741   -0.201109    1.542679
      3          8           0       -1.376344   -0.059695   -0.752177
      4          1           0       -1.870758   -0.745615   -0.293981
      5          8           0        0.870878   -1.160599   -0.582335
      6          1           0        1.710761   -1.223572   -0.118085
      7          8           0        0.678733    1.415483   -0.339496
 ---------------------------------------------------------------------
 Rotational constants (GHZ):      4.5530164      4.4927588      4.4292906
 Standard basis: 6-311G(d,p) (5D, 7F)
 There are   115 symmetry adapted cartesian basis functions of A   symmetry.
 There are   110 symmetry adapted basis functions of A   symmetry.
   110 basis functions,   190 primitive gaussians,   115 cartesian basis functions
    25 alpha electrons       25 beta electrons
       nuclear repulsion energy       264.4851731167 Hartrees.
 NAtoms=    7 NActive=    7 NUniq=    7 SFac= 1.00D+00 NAtFMM=   60 NAOKFM=F Big=F
 Integral buffers will be    131072 words long.
 Raffenetti 2 integral format.
 Two-electron integral symmetry is turned on.
 One-electron integrals computed using PRISM.
 NBasis=   110 RedAO= T EigKep=  1.01D-02  NBF=   110
 NBsUse=   110 1.00D-06 EigRej= -1.00D+00 NBFU=   110
 Initial guess from the checkpoint file:  "H3PO42-A.chk"
 B after Tr=     0.000000    0.000000    0.000000
         Rot=    0.967224   -0.027554   -0.028936   -0.250762 Ang= -29.42 deg.
 ExpMin= 6.85D-02 ExpMax= 7.75D+04 ExpMxC= 2.65D+03 IAcc=2 IRadAn=         4 AccDes= 0.00D+00
 Harris functional with IExCor=  402 and IRadAn=       4 diagonalized for initial guess.
 HarFok:  IExCor=  402 AccDes= 0.00D+00 IRadAn=         4 IDoV= 1 UseB2=F ITyADJ=14
 ICtDFT=  3500011 ScaDFX=  1.000000  1.000000  1.000000  1.000000
 FoFCou: FMM=F IPFlag=           0 FMFlag=      100000 FMFlg1=           0
         NFxFlg=           0 DoJE=T BraDBF=F KetDBF=T FulRan=T
         wScrn=  0.000000 ICntrl=     500 IOpCl=  0 I1Cent=   200000004 NGrid=           0
         NMat0=    1 NMatS0=      1 NMatT0=    0 NMatD0=    1 NMtDS0=    0 NMtDT0=    0
 Petite list used in FoFCou.
 Keep R1 ints in memory in canonical form, NReq=19634110.
 Requested convergence on RMS density matrix=1.00D-08 within 128 cycles.
 Requested convergence on MAX density matrix=1.00D-06.
 Requested convergence on             energy=1.00D-06.
 No special actions if energy rises.
 Integral accuracy reduced to 1.0D-05 until final iterations.
 Initial convergence to 1.0D-05 achieved.  Increase integral accuracy.
 SCF Done:  E(RB3LYP) =  -643.724675628     A.U. after   11 cycles
            NFock= 11  Conv=0.45D-08     -V/T= 2.0017
 Calling FoFJK, ICntrl=      2127 FMM=F ISym2X=0 I1Cent= 0 IOpClX= 0 NMat=1 NMatS=1 NMatT=0.
 ***** Axes restored to original set *****
 -------------------------------------------------------------------
 Center     Atomic                   Forces (Hartrees/Bohr)
 Number     Number              X              Y              Z
 -------------------------------------------------------------------
      1       15          -0.003437628    0.002673002   -0.004465693
      2        8          -0.000471048   -0.001777463    0.002967770
      3        8           0.000510078   -0.001550616    0.000655517
      4        1           0.000023226    0.000697259   -0.000672378
      5        8           0.000449260   -0.000725815    0.001432581
      6        1           0.000107247    0.000776547   -0.000251535
      7        8           0.002818866   -0.000092915    0.000333739
 -------------------------------------------------------------------
 Cartesian Forces:  Max     0.004465693 RMS     0.001781538

 GradGradGradGradGradGradGradGradGradGradGradGradGradGradGradGradGradGrad
 Berny optimization.
 Using GEDIIS/GDIIS optimizer.
 FormGI is forming the generalized inverse of G from B-inverse, IUseBI=4.
 Internal  Forces:  Max     0.003299202 RMS     0.001257366
 Search for a local minimum.
 Step number   5 out of a maximum of   30
 All quantities printed in internal units (Hartrees-Bohrs-Radians)
 Mixed Optimization -- RFO/linear search
 Update second derivatives using D2CorX and points    2    3    4    5
 DE= -5.64D-04 DEPred=-6.42D-04 R= 8.78D-01
 TightC=F SS=  1.41D+00  RLast= 8.13D-02 DXNew= 1.4270D+00 2.4402D-01
 Trust test= 8.78D-01 RLast= 8.13D-02 DXMaxT set to 8.49D-01
 The second derivative matrix:
                          R1        R2        R3        R4        R5
           R1           0.45752
           R2           0.01787   0.35253
           R3           0.02142   0.00534   0.35072
           R4           0.12401   0.01481   0.01889   0.49613
           R5          -0.00370  -0.00309  -0.00351  -0.00232   0.55515
           R6          -0.00018   0.00112   0.00058  -0.00311  -0.00052
           A1          -0.00089   0.00024   0.00169  -0.00119   0.00062
           A2          -0.00501  -0.00208  -0.00004  -0.00335   0.00106
           A3           0.01028  -0.00035  -0.00907   0.01426   0.00067
           A4           0.01033   0.01069   0.01389  -0.00832  -0.00439
           A5          -0.00817  -0.00324  -0.00119  -0.00524   0.00102
           A6          -0.00352  -0.00346  -0.00249  -0.00041   0.00094
           A7           0.00418   0.00523   0.00719   0.00238  -0.00007
           A8           0.00789   0.01120   0.01267   0.00008  -0.00148
           D1          -0.00369  -0.01438  -0.01351   0.01028   0.00232
           D2          -0.00101  -0.00153  -0.00184   0.00004  -0.00021
           D3          -0.00087   0.00918   0.00773  -0.01149  -0.00230
           D4           0.00039   0.01254   0.01124  -0.01305  -0.00262
           D5          -0.00372  -0.00295  -0.00337  -0.00177   0.00011
           D6           0.00217  -0.01188  -0.01091   0.01534   0.00234
                          R6        A1        A2        A3        A4
           R6           0.55551
           A1           0.00055   0.24724
           A2          -0.00001  -0.00307   0.24692
           A3          -0.00306   0.01403   0.01819   0.17059
           A4           0.00681  -0.00652  -0.01350   0.03699   0.26869
           A5          -0.00058  -0.00319  -0.00284   0.01890  -0.01790
           A6          -0.00068  -0.00160  -0.00111   0.01209  -0.01330
           A7           0.00101  -0.00282  -0.00364   0.00788   0.00190
           A8           0.00264  -0.00297  -0.00497   0.00165   0.01719
           D1          -0.00371  -0.00131   0.00121   0.02352  -0.04119
           D2          -0.00046   0.00056   0.00071  -0.00071  -0.00251
           D3           0.00244   0.00228   0.00043  -0.02212   0.03142
           D4           0.00330   0.00218  -0.00020  -0.02575   0.03964
           D5          -0.00082   0.00047   0.00100   0.00042  -0.00586
           D6          -0.00325  -0.00174   0.00054   0.02319  -0.03713
                          A5        A6        A7        A8        D1
           A5           0.24791
           A6          -0.00084   0.25016
           A7          -0.00336  -0.00236   0.15807
           A8          -0.00518  -0.00467   0.00013   0.16656
           D1           0.00191   0.00374  -0.00425  -0.01400   0.03961
           D2           0.00080   0.00041   0.00085   0.00052   0.00053
           D3          -0.00003  -0.00239   0.00521   0.01300  -0.01655
           D4          -0.00078  -0.00322   0.00541   0.01504  -0.01976
           D5           0.00132   0.00083   0.00058  -0.00063   0.00158
           D6           0.00098   0.00323  -0.00472  -0.01397   0.01920
                          D2        D3        D4        D5        D6
           D2           0.01930
           D3          -0.00099   0.03223
           D4          -0.00089   0.01563   0.03862
           D5          -0.00017  -0.00170  -0.00185   0.01968
           D6           0.00072  -0.01550  -0.01870   0.00157   0.03793
 ITU=  1  1  1  1  0
 Use linear search instead of GDIIS.
     Eigenvalues ---    0.01846   0.01956   0.15351   0.15677   0.15785
     Eigenvalues ---    0.16244   0.17630   0.20828   0.29426   0.34595
     Eigenvalues ---    0.34716   0.37821   0.55431   0.55661   0.60981
 RFO step:  Lambda=-9.64880656D-05 EMin= 1.84580282D-02
 Quartic linear search produced a step of -0.13189.
 Iteration  1 RMS(Cart)=  0.00813945 RMS(Int)=  0.00009245
 Iteration  2 RMS(Cart)=  0.00007586 RMS(Int)=  0.00001835
 Iteration  3 RMS(Cart)=  0.00000001 RMS(Int)=  0.00001835
 Variable       Old X    -DE/DX   Delta X   Delta X   Delta X     New X
                                 (Linear)    (Quad)   (Total)
    R1        2.84779  -0.00330  -0.00071  -0.00495  -0.00566   2.84213
    R2        3.14052  -0.00014  -0.00142   0.00296   0.00154   3.14206
    R3        3.18008   0.00027  -0.00132   0.00454   0.00322   3.18331
    R4        2.82939  -0.00277   0.00061  -0.00560  -0.00499   2.82440
    R5        1.81736   0.00036  -0.00007   0.00056   0.00049   1.81785
    R6        1.81738  -0.00019  -0.00027   0.00022  -0.00005   1.81733
    A1        1.89116  -0.00039  -0.00027  -0.00273  -0.00297   1.88819
    A2        1.87846  -0.00006  -0.00014  -0.00208  -0.00219   1.87627
    A3        2.14768   0.00120   0.00426   0.00322   0.00750   2.15518
    A4        1.69574  -0.00225  -0.00671   0.00082  -0.00586   1.68988
    A5        1.89095   0.00046   0.00005   0.00037   0.00046   1.89141
    A6        1.90615   0.00021  -0.00003  -0.00015  -0.00015   1.90600
    A7        1.85193  -0.00076   0.00062  -0.00564  -0.00501   1.84692
    A8        1.86216  -0.00121  -0.00014  -0.00540  -0.00554   1.85662
    D1       -0.51569   0.00138   0.00057   0.02600   0.02659  -0.48910
    D2        1.42686   0.00030  -0.00227   0.02336   0.02109   1.44796
    D3       -2.88371  -0.00027  -0.00498   0.02364   0.01864  -2.86507
    D4       -1.10343  -0.00075  -0.00330   0.01202   0.00871  -1.09472
    D5       -3.05640   0.00056  -0.00043   0.01520   0.01477  -3.04163
    D6        1.26655   0.00096   0.00231   0.01448   0.01680   1.28335
         Item               Value     Threshold  Converged?
 Maximum Force            0.003299     0.000450     NO 
 RMS     Force            0.001257     0.000300     NO 
 Maximum Displacement     0.016445     0.001800     NO 
 RMS     Displacement     0.008133     0.001200     NO 
 Predicted change in Energy=-6.178827D-05
 GradGradGradGradGradGradGradGradGradGradGradGradGradGradGradGradGradGrad

                          Input orientation:                          
 ---------------------------------------------------------------------
 Center     Atomic      Atomic             Coordinates (Angstroms)
 Number     Number       Type             X           Y           Z
 ---------------------------------------------------------------------
      1         15           0       -1.074681   -0.671654   -1.194435
      2          8           0       -0.383543   -0.000758   -2.349517
      3          8           0       -0.450780   -0.049771    0.215743
      4          1           0        0.448157    0.222026    0.007388
      5          8           0       -0.419291   -2.215705   -1.039450
      6          1           0       -0.628202   -2.681976   -1.854185
      7          8           0       -2.560758   -0.752217   -1.056797
 ---------------------------------------------------------------------
                    Distance matrix (angstroms):
                    1          2          3          4          5
     1  P    0.000000
     2  O    1.503991   0.000000
     3  O    1.662706   2.566609   0.000000
     4  H    2.135901   2.509254   0.961963   0.000000
     5  O    1.684533   2.573625   2.503551   2.791212   0.000000
     6  H    2.162408   2.737543   3.353294   3.613478   0.961689
     7  O    1.494610   2.641227   2.562185   3.336946   2.593834
                    6          7
     6  H    0.000000
     7  O    2.845095   0.000000
 Stoichiometry    H2O4P(1-)
 Framework group  C1[X(H2O4P)]
 Deg. of freedom    15
 Full point group                 C1      NOp   1
 Largest Abelian subgroup         C1      NOp   1
 Largest concise Abelian subgroup C1      NOp   1
                         Standard orientation:                         
 ---------------------------------------------------------------------
 Center     Atomic      Atomic             Coordinates (Angstroms)
 Number     Number       Type             X           Y           Z
 ---------------------------------------------------------------------
      1         15           0        0.040986    0.134996    0.101697
      2          8           0       -0.243948   -0.225620    1.533743
      3          8           0       -1.368107   -0.030387   -0.765306
      4          1           0       -1.880164   -0.703913   -0.307558
      5          8           0        0.857995   -1.163142   -0.594711
      6          1           0        1.686359   -1.251414   -0.114225
      7          8           0        0.701438    1.410448   -0.311686
 ---------------------------------------------------------------------
 Rotational constants (GHZ):      4.5647441      4.4976679      4.4337294
 Standard basis: 6-311G(d,p) (5D, 7F)
 There are   115 symmetry adapted cartesian basis functions of A   symmetry.
 There are   110 symmetry adapted basis functions of A   symmetry.
   110 basis functions,   190 primitive gaussians,   115 cartesian basis functions
    25 alpha electrons       25 beta electrons
       nuclear repulsion energy       264.6826691183 Hartrees.
 NAtoms=    7 NActive=    7 NUniq=    7 SFac= 1.00D+00 NAtFMM=   60 NAOKFM=F Big=F
 Integral buffers will be    131072 words long.
 Raffenetti 2 integral format.
 Two-electron integral symmetry is turned on.
 One-electron integrals computed using PRISM.
 NBasis=   110 RedAO= T EigKep=  1.01D-02  NBF=   110
 NBsUse=   110 1.00D-06 EigRej= -1.00D+00 NBFU=   110
 Initial guess from the checkpoint file:  "H3PO42-A.chk"
 B after Tr=     0.000000    0.000000    0.000000
         Rot=    0.999930   -0.008137    0.004455    0.007291 Ang=  -1.35 deg.
 Keep R1 ints in memory in canonical form, NReq=19634110.
 Requested convergence on RMS density matrix=1.00D-08 within 128 cycles.
 Requested convergence on MAX density matrix=1.00D-06.
 Requested convergence on             energy=1.00D-06.
 No special actions if energy rises.
 SCF Done:  E(RB3LYP) =  -643.724764325     A.U. after    9 cycles
            NFock=  9  Conv=0.72D-08     -V/T= 2.0017
 Calling FoFJK, ICntrl=      2127 FMM=F ISym2X=0 I1Cent= 0 IOpClX= 0 NMat=1 NMatS=1 NMatT=0.
 ***** Axes restored to original set *****
 -------------------------------------------------------------------
 Center     Atomic                   Forces (Hartrees/Bohr)
 Number     Number              X              Y              Z
 -------------------------------------------------------------------
      1       15          -0.000462566    0.000372370   -0.000464999
      2        8           0.000074800   -0.000185018    0.000150247
[...]
    68. RY*(  13) O   3                  0.00001     3.14276   
    69. RY*(   1) H   4                  0.00330     0.67444   
    70. RY*(   2) H   4                  0.00182     1.67701   
    71. RY*(   3) H   4                  0.00140     1.76012   
    72. RY*(   4) H   4                  0.00074     2.24400   
    73. RY*(   5) H   4                  0.00005     2.72259   
    74. RY*(   1) O   5                  0.00154     1.42825   
    75. RY*(   2) O   5                  0.00066     1.28245   
    76. RY*(   3) O   5                  0.00058     1.34620   
    77. RY*(   4) O   5                  0.00030     1.81253   
    78. RY*(   5) O   5                  0.00011     3.07679   
    79. RY*(   6) O   5                  0.00005     3.19795   
    80. RY*(   7) O   5                  0.00003     4.11480   
    81. RY*(   8) O   5                  0.00000     4.44341   
    82. RY*(   9) O   5                  0.00000    49.92136   
    83. RY*(  10) O   5                  0.00001     4.39128   
    84. RY*(  11) O   5                  0.00000     3.70954   
    85. RY*(  12) O   5                  0.00001     4.89437   
    86. RY*(  13) O   5                  0.00001     3.14177   
    87. RY*(   1) H   6                  0.00330     0.67419   
    88. RY*(   2) H   6                  0.00182     1.67698   
    89. RY*(   3) H   6                  0.00140     1.76015   
    90. RY*(   4) H   6                  0.00074     2.24407   
    91. RY*(   5) H   6                  0.00005     2.72261   
    92. RY*(   1) O   7                  0.00101     1.57311   
    93. RY*(   2) O   7                  0.00056     1.23392   
    94. RY*(   3) O   7                  0.00041     1.78923   
    95. RY*(   4) O   7                  0.00015     2.17847   
    96. RY*(   5) O   7                  0.00005     4.58324   
    97. RY*(   6) O   7                  0.00004     2.65211   
    98. RY*(   7) O   7                  0.00001     4.62307   
    99. RY*(   8) O   7                  0.00001     3.52767   
   100. RY*(   9) O   7                  0.00001     3.52455   
   101. RY*(  10) O   7                  0.00000     3.08830   
   102. RY*(  11) O   7                  0.00001     5.00457   
   103. RY*(  12) O   7                  0.00000    49.92682   
   104. RY*(  13) O   7                  0.00000     3.17500   
   105. BD*(   1) P   1 - O   2          0.12471     0.57839  108(g),26(g),110(v),109(v)
                                                    28(g),37(g),34(g),32(g)
                                                    38(g),31(g),39(g)
   106. BD*(   1) P   1 - O   3          0.22369     0.40600  107(g),27(g),26(g),69(v)
                                                    33(g),38(g),34(g)
   107. BD*(   1) P   1 - O   5          0.22364     0.40609  106(g),27(g),26(g),87(v)
                                                    33(g),38(g),34(g)
   108. BD*(   1) P   1 - O   7          0.10718     0.59842  105(g),28(g),26(g),37(g)
                                                    31(g),110(v),109(v),38(g)
                                                    32(g),34(g),39(g),87(r)
                                                    69(r)
   109. BD*(   1) O   3 - H   4          0.00549     0.58228   
   110. BD*(   1) O   5 - H   6          0.00549     0.58223   
       -------------------------------
              Total Lewis   49.04419  ( 98.0884%)
        Valence non-Lewis    0.69020  (  1.3804%)
        Rydberg non-Lewis    0.26562  (  0.5312%)
       -------------------------------
            Total unit  1   50.00000  (100.0000%)
           Charge unit  1   -1.00000
 1\1\GINC-BLADI36\SP\RB3LYP\6-311G(d,p)\H2O4P1(1-)\SARARIOP\20-Jun-2017
 \0\\# B3LYP/6-311G** geom=check guess=read pop=nboread\\Title Card Req
 uired\\-1,1\P,0,-1.1687588665,-0.7171846479,-1.1594415783\O,0,-0.40446
 04762,-0.1538604915,-2.3324398737\O,0,-0.3661336048,-0.1710900164,0.20
 62655831\H,0,0.4186095214,0.2620472701,-0.1433948585\O,0,-0.7981014658
 ,-2.3506750404,-1.1214345363\H,0,-0.1174644738,-2.4502621176,-1.794136
 0733\O,0,-2.6327873243,-0.5690295764,-0.926671593\\Version=AM64L-G09Re
 vD.01\State=1-A\HF=-643.7261847\RMSD=1.535e-09\Dipole=1.4501404,-0.355
 4001,0.112293\Quadrupole=0.0349215,1.7529388,-1.7878603,-0.2243287,1.4
 844364,2.9133124\PG=C01 [X(H2O4P1)]\\@


 THE WISE MAN HAS THE POWER TO REASON AWAY
 WHAT A FOOL BELIEVES.
                     - DOOBIE BROTHERS
 Job cpu time:       0 days  0 hours  5 minutes  4.0 seconds.
 File lengths (MBytes):  RWF=      6 Int=      0 D2E=      0 Chk=      3 Scr=      1
 Normal termination of Gaussian 09 at Tue Jun 20 23:43:50 2017.
 Initial command:
 /usr/local/gaussian/gaussian09.d1/g09/l1.exe "/scratch/sarariop/H3PO42-A.com/Gau-17299.inp" -scrdir="/scratch/sarariop/H3PO42-A.com/"
 Default is to use a total of   8 processors:
                                8 via shared-memory
                                1 via Linda
 Entering Link 1 = /usr/local/gaussian/gaussian09.d1/g09/l1.exe PID=     19786.
  
 Copyright (c) 1988,1990,1992,1993,1995,1998,2003,2009,2013,
            Gaussian, Inc.  All Rights Reserved.
  
 This is part of the Gaussian(R) 09 program.  It is based on
 the Gaussian(R) 03 system (copyright 2003, Gaussian, Inc.),
 the Gaussian(R) 98 system (copyright 1998, Gaussian, Inc.),
 the Gaussian(R) 94 system (copyright 1995, Gaussian, Inc.),
 the Gaussian 92(TM) system (copyright 1992, Gaussian, Inc.),
 the Gaussian 90(TM) system (copyright 1990, Gaussian, Inc.),
 the Gaussian 88(TM) system (copyright 1988, Gaussian, Inc.),
 the Gaussian 86(TM) system (copyright 1986, Carnegie Mellon
 University), and the Gaussian 82(TM) system (copyright 1983,
 Carnegie Mellon University). Gaussian is a federally registered
 trademark of Gaussian, Inc.
  
 This software contains proprietary and confidential information,
 including trade secrets, belonging to Gaussian, Inc.
  
 This software is provided under written license and may be
 used, copied, transmitted, or stored only in accord with that
 written license.
  
 The following legend is applicable only to US Government
 contracts under FAR:
  
                    RESTRICTED RIGHTS LEGEND
  
 Use, reproduction and disclosure by the US Government is
 subject to restrictions as set forth in subparagraphs (a)
 and (c) of the Commercial Computer Software - Restricted
 Rights clause in FAR 52.227-19.
  
 Gaussian, Inc.
 340 Quinnipiac St., Bldg. 40, Wallingford CT 06492
  
  
 ---------------------------------------------------------------
 Warning -- This program may not be used in any manner that
 competes with the business of Gaussian, Inc. or will provide
 assistance to any competitor of Gaussian, Inc.  The licensee
 of this program is prohibited from giving any competitor of
 Gaussian, Inc. access to this program.  By using this program,
 the user acknowledges that Gaussian, Inc. is engaged in the
 business of creating and licensing software in the field of
 computational chemistry and represents and warrants to the
 licensee that it is not a competitor of Gaussian, Inc. and that
 it will not use this program in any manner prohibited above.
 ---------------------------------------------------------------
  

 Cite this work as:
 Gaussian 09, Revision D.01,
 M. J. Frisch, G. W. Trucks, H. B. Schlegel, G. E. Scuseria, 
 M. A. Robb, J. R. Cheeseman, G. Scalmani, V. Barone, B. Mennucci, 
 G. A. Petersson, H. Nakatsuji, M. Caricato, X. Li, H. P. Hratchian, 
 A. F. Izmaylov, J. Bloino, G. Zheng, J. L. Sonnenberg, M. Hada, 
 M. Ehara, K. Toyota, R. Fukuda, J. Hasegawa, M. Ishida, T. Nakajima, 
 Y. Honda, O. Kitao, H. Nakai, T. Vreven, J. A. Montgomery, Jr., 
 J. E. Peralta, F. Ogliaro, M. Bearpark, J. J. Heyd, E. Brothers, 
 K. N. Kudin, V. N. Staroverov, T. Keith, R. Kobayashi, J. Normand, 
 K. Raghavachari, A. Rendell, J. C. Burant, S. S. Iyengar, J. Tomasi, 
 M. Cossi, N. Rega, J. M. Millam, M. Klene, J. E. Knox, J. B. Cross, 
 V. Bakken, C. Adamo, J. Jaramillo, R. Gomperts, R. E. Stratmann, 
 O. Yazyev, A. J. Austin, R. Cammi, C. Pomelli, J. W. Ochterski, 
 R. L. Martin, K. Morokuma, V. G. Zakrzewski, G. A. Voth, 
 P. Salvador, J. J. Dannenberg, S. Dapprich, A. D. Daniels, 
 O. Farkas, J. B. Foresman, J. V. Ortiz, J. Cioslowski, 
 and D. J. Fox, Gaussian, Inc., Wallingford CT, 2013.
 
 ******************************************
 Gaussian 09:  AM64L-G09RevD.01 24-Apr-2013
                20-Jun-2017 
 ******************************************
 %chk=H3PO42-A.chk
 Default route:  MaxDisk=56GB
 ------------------------------------------------
 #B3LYP/6-311G** geom=check guess=read output=wfx
 ------------------------------------------------
 1/29=2,38=1/1;
 2/12=2,40=1/2;
 3/5=4,6=6,7=101,11=2,14=-4,16=1,25=1,30=1,74=-5,116=-2/1,2,3;
 4/5=1/1;
 5/5=2,38=6/2;
 6/7=2,8=2,9=2,10=2,28=1/1;
 99/5=1,6=200,9=1/99;
 -------------------
 Title Card Required
 -------------------
 Structure from the checkpoint file:  "H3PO42-A.chk"
 Charge = -1 Multiplicity = 1
 Redundant internal coordinates found in file.
 P,0,-1.1687588665,-0.7171846479,-1.1594415783
 O,0,-0.4044604762,-0.1538604915,-2.3324398737
 O,0,-0.3661336048,-0.1710900164,0.2062655831
 H,0,0.4186095214,0.2620472701,-0.1433948585
 O,0,-0.7981014658,-2.3506750404,-1.1214345363
 H,0,-0.1174644738,-2.4502621176,-1.7941360733
 O,0,-2.6327873243,-0.5690295764,-0.926671593
 Recover connectivity data from disk.
                          Input orientation:                          
 ---------------------------------------------------------------------
 Center     Atomic      Atomic             Coordinates (Angstroms)
 Number     Number       Type             X           Y           Z
 ---------------------------------------------------------------------
      1         15           0       -1.168759   -0.717185   -1.159442
      2          8           0       -0.404460   -0.153860   -2.332440
      3          8           0       -0.366134   -0.171090    0.206266
      4          1           0        0.418610    0.262047   -0.143395
      5          8           0       -0.798101   -2.350675   -1.121435
      6          1           0       -0.117464   -2.450262   -1.794136
      7          8           0       -2.632787   -0.569030   -0.926672
 ---------------------------------------------------------------------
                    Distance matrix (angstroms):
                    1          2          3          4          5
     1  P    0.000000
     2  O    1.509109   0.000000
     3  O    1.675584   2.539053   0.000000
     4  H    2.123908   2.375361   0.962129   0.000000
     5  O    1.675447   2.539189   2.588431   3.043561   0.000000
     6  H    2.124056   2.376047   3.042707   3.220084   0.962139
     7  O    1.489802   2.667206   2.565077   3.258103   2.564813
                    6          7
     6  H    0.000000
     7  O    3.258586   0.000000
 Stoichiometry    H2O4P(1-)
 Framework group  C1[X(H2O4P)]
 Deg. of freedom    15
 Full point group                 C1      NOp   1
 Largest Abelian subgroup         C1      NOp   1
 Largest concise Abelian subgroup C1      NOp   1
                         Standard orientation:                         
 ---------------------------------------------------------------------
 Center     Atomic      Atomic             Coordinates (Angstroms)
 Number     Number       Type             X           Y           Z
 ---------------------------------------------------------------------
      1         15           0        0.000428    0.114019    0.130615
      2          8           0       -0.003811   -0.853819    1.288493
      3          8           0       -1.295136   -0.331102   -0.834250
      4          1           0       -1.614618   -1.145019   -0.432799
      5          8           0        1.293278   -0.340611   -0.833218
      6          1           0        1.605440   -1.157961   -0.432961
      7          8           0        0.006014    1.599619    0.242293
 ---------------------------------------------------------------------
 Rotational constants (GHZ):      4.6229428      4.6010445      4.2779557
 Standard basis: 6-311G(d,p) (5D, 7F)
 There are   115 symmetry adapted cartesian basis functions of A   symmetry.
 There are   110 symmetry adapted basis functions of A   symmetry.
   110 basis functions,   190 primitive gaussians,   115 cartesian basis functions
    25 alpha electrons       25 beta electrons
       nuclear repulsion energy       264.7511643253 Hartrees.
 NAtoms=    7 NActive=    7 NUniq=    7 SFac= 1.00D+00 NAtFMM=   60 NAOKFM=F Big=F
 Integral buffers will be    131072 words long.
 Raffenetti 2 integral format.
 Two-electron integral symmetry is turned on.
 One-electron integrals computed using PRISM.
 NBasis=   110 RedAO= T EigKep=  9.37D-03  NBF=   110
 NBsUse=   110 1.00D-06 EigRej= -1.00D+00 NBFU=   110
 Initial guess from the checkpoint file:  "H3PO42-A.chk"
 B after Tr=     0.000000    0.000000    0.000000
         Rot=    1.000000    0.000000    0.000000    0.000000 Ang=   0.00 deg.
 Keep R1 ints in memory in canonical form, NReq=19634110.
 Requested convergence on RMS density matrix=1.00D-08 within 128 cycles.
 Requested convergence on MAX density matrix=1.00D-06.
 Requested convergence on             energy=1.00D-06.
 No special actions if energy rises.
 SCF Done:  E(RB3LYP) =  -643.726184720     A.U. after    1 cycles
            NFock=  1  Conv=0.24D-09     -V/T= 2.0017

 **********************************************************************

            Population analysis using the SCF density.

 **********************************************************************

 Orbital symmetries:
       Occupied  (A) (A) (A) (A) (A) (A) (A) (A) (A) (A) (A) (A)
                 (A) (A) (A) (A) (A) (A) (A) (A) (A) (A) (A) (A)
                 (A)
       Virtual   (A) (A) (A) (A) (A) (A) (A) (A) (A) (A) (A) (A)
                 (A) (A) (A) (A) (A) (A) (A) (A) (A) (A) (A) (A)
                 (A) (A) (A) (A) (A) (A) (A) (A) (A) (A) (A) (A)
                 (A) (A) (A) (A) (A) (A) (A) (A) (A) (A) (A) (A)
                 (A) (A) (A) (A) (A) (A) (A) (A) (A) (A) (A) (A)
                 (A) (A) (A) (A) (A) (A) (A) (A) (A) (A) (A) (A)
                 (A) (A) (A) (A) (A) (A) (A) (A) (A) (A) (A) (A)
                 (A)
 The electronic state is 1-A.
 Alpha  occ. eigenvalues --  -76.95643 -18.94153 -18.94150 -18.86189 -18.85798
 Alpha  occ. eigenvalues --   -6.43746  -4.60070  -4.59967  -4.59708  -0.87147
 Alpha  occ. eigenvalues --   -0.82457  -0.75982  -0.73099  -0.39820  -0.32777
 Alpha  occ. eigenvalues --   -0.26964  -0.23199  -0.22141  -0.16894  -0.16169
 Alpha  occ. eigenvalues --   -0.14207  -0.11136  -0.08954  -0.07822  -0.06896
 Alpha virt. eigenvalues --    0.18977   0.22992   0.30473   0.32209   0.32615
 Alpha virt. eigenvalues --    0.36826   0.41294   0.42344   0.47446   0.56932
 Alpha virt. eigenvalues --    0.58140   0.63744   0.82352   0.83479   0.90095
 Alpha virt. eigenvalues --    0.93169   0.95672   0.99629   1.05614   1.05655
 Alpha virt. eigenvalues --    1.07868   1.09183   1.10078   1.11642   1.14390
 Alpha virt. eigenvalues --    1.19748   1.22182   1.30534   1.32194   1.41006
 Alpha virt. eigenvalues --    1.41920   1.47716   1.54189   1.55849   1.56206
 Alpha virt. eigenvalues --    1.71140   1.77206   1.83098   1.88037   2.06472
 Alpha virt. eigenvalues --    2.14399   2.15078   2.56966   2.60439   2.97214
 Alpha virt. eigenvalues --    3.04927   3.05502   3.05875   3.06522   3.08085
 Alpha virt. eigenvalues --    3.14731   3.15930   3.22731   3.24336   3.28956
 Alpha virt. eigenvalues --    3.29571   3.35905   3.37748   3.39179   3.50396
 Alpha virt. eigenvalues --    3.67934   3.72228   3.89548   3.93987   4.93856
 Alpha virt. eigenvalues --    4.98664   5.01933   5.02684   5.05192   5.06108
 Alpha virt. eigenvalues --    5.07175   5.17249   5.30102   5.36972   5.61448
 Alpha virt. eigenvalues --    5.62289   7.23212  14.02891  14.08251  14.29127
 Alpha virt. eigenvalues --   49.98199  49.99767  50.01635  50.11878 163.25633
          Condensed to atoms (all electrons):
               1          2          3          4          5          6
     1  P   12.355146   0.527413   0.243625  -0.027612   0.243620  -0.027563
     2  O    0.527413   8.320639  -0.044024   0.011904  -0.043995   0.011866
     3  O    0.243625  -0.044024   8.147579   0.300824  -0.033522   0.000052
     4  H   -0.027612   0.011904   0.300824   0.475398   0.000054  -0.001570
     5  O    0.243620  -0.043995  -0.033522   0.000054   8.147478   0.300807
     6  H   -0.027563   0.011866   0.000052  -0.001570   0.300807   0.475401
     7  O    0.586975  -0.027895  -0.036938   0.000066  -0.036953   0.000070
               7
     1  P    0.586975
     2  O   -0.027895
     3  O   -0.036938
     4  H    0.000066
     5  O   -0.036953
     6  H    0.000070
     7  O    8.183947
 Mulliken charges:
               1
     1  P    1.098396
     2  O   -0.755909
     3  O   -0.577596
     4  H    0.240935
     5  O   -0.577490
     6  H    0.240936
     7  O   -0.669272
 Sum of Mulliken charges =  -1.00000
 Mulliken charges with hydrogens summed into heavy atoms:
               1
     1  P    1.098396
     2  O   -0.755909
     3  O   -0.336661
     5  O   -0.336554
     7  O   -0.669272
 Electronic spatial extent (au):  <R**2>=            410.7874
 Charge=             -1.0000 electrons
 Dipole moment (field-independent basis, Debye):
    X=             -0.0135    Y=             -3.5808    Z=             -1.2888  Tot=              3.8057
 Quadrupole moment (field-independent basis, Debye-Ang):
   XX=            -37.8894   YY=            -43.3491   ZZ=            -46.4765
   XY=             -0.0241   XZ=              0.0088   YZ=              2.4932
 Traceless Quadrupole moment (field-independent basis, Debye-Ang):
   XX=              4.6822   YY=             -0.7775   ZZ=             -3.9048
   XY=             -0.0241   XZ=              0.0088   YZ=              2.4932
 Octapole moment (field-independent basis, Debye-Ang**2):
  XXX=             -0.1160  YYY=            -19.3251  ZZZ=             -5.8533  XYY=              0.0005
  XXY=             -8.6278  XXZ=              5.3514  XZZ=              0.0332  YZZ=              5.8402
  YYZ=             -8.0091  XYZ=             -0.0497
 Hexadecapole moment (field-independent basis, Debye-Ang**3):
 XXXX=           -167.7008 YYYY=           -191.9789 ZZZZ=           -168.6665 XXXY=              0.1095
 XXXZ=              0.0307 YYYX=             -0.2281 YYYZ=              3.4799 ZZZX=              0.0181
 ZZZY=              5.7885 XXYY=            -45.7069 XXZZ=            -61.1562 YYZZ=            -59.5577
 XXYZ=              2.5587 YYXZ=             -0.0088 ZZXY=             -0.0039
 N-N= 2.647511643253D+02 E-N=-2.069068886273D+03  KE= 6.426428314266D+02
 1\1\GINC-BLADI36\SP\RB3LYP\6-311G(d,p)\H2O4P1(1-)\SARARIOP\20-Jun-2017
 \0\\#B3LYP/6-311G** geom=check guess=read output=wfx\\Title Card Requi
 red\\-1,1\P,0,-1.1687588665,-0.7171846479,-1.1594415783\O,0,-0.4044604
 762,-0.1538604915,-2.3324398737\O,0,-0.3661336048,-0.1710900164,0.2062
 655831\H,0,0.4186095214,0.2620472701,-0.1433948585\O,0,-0.7981014658,-
 2.3506750404,-1.1214345363\H,0,-0.1174644738,-2.4502621176,-1.79413607
 33\O,0,-2.6327873243,-0.5690295764,-0.926671593\\Version=AM64L-G09RevD
 .01\State=1-A\HF=-643.7261847\RMSD=2.391e-10\Dipole=1.4501403,-0.35540
 01,0.112293\Quadrupole=0.0349215,1.7529387,-1.7878602,-0.2243287,1.484
 4364,2.9133123\PG=C01 [X(H2O4P1)]\\@

 Writing a WFNX file to "H3PO42-A.wfx"


 The number of Unix installations has grown to 10,
  with more expected.
                  -- The Unix Programmer's Manual,
                     2nd Edition, June, 1972.
 Job cpu time:       0 days  0 hours  1 minutes  0.2 seconds.
 File lengths (MBytes):  RWF=      7 Int=      0 D2E=      0 Chk=      3 Scr=      1
 Normal termination of Gaussian 09 at Tue Jun 20 23:44:03 2017.
