 Entering Gaussian System, Link 0=g09
 Initial command:
 /usr/local/gaussian/gaussian09.d1/g09/l1.exe "/scratch/sarariop/H3PO42-h2o.com/Gau-12364.inp" -scrdir="/scratch/sarariop/H3PO42-h2o.com/"
 Default is to use a total of   8 processors:
                                8 via shared-memory
                                1 via Linda
 Entering Link 1 = /usr/local/gaussian/gaussian09.d1/g09/l1.exe PID=     12365.
  
 Copyright (c) 1988,1990,1992,1993,1995,1998,2003,2009,2013,
            Gaussian, Inc.  All Rights Reserved.
  
 This is part of the Gaussian(R) 09 program.  It is based on
 the Gaussian(R) 03 system (copyright 2003, Gaussian, Inc.),
 the Gaussian(R) 98 system (copyright 1998, Gaussian, Inc.),
 the Gaussian(R) 94 system (copyright 1995, Gaussian, Inc.),
 the Gaussian 92(TM) system (copyright 1992, Gaussian, Inc.),
 the Gaussian 90(TM) system (copyright 1990, Gaussian, Inc.),
 the Gaussian 88(TM) system (copyright 1988, Gaussian, Inc.),
 the Gaussian 86(TM) system (copyright 1986, Carnegie Mellon
 University), and the Gaussian 82(TM) system (copyright 1983,
 Carnegie Mellon University). Gaussian is a federally registered
 trademark of Gaussian, Inc.
  
 This software contains proprietary and confidential information,
 including trade secrets, belonging to Gaussian, Inc.
  
 This software is provided under written license and may be
 used, copied, transmitted, or stored only in accord with that
 written license.
  
 The following legend is applicable only to US Government
 contracts under FAR:
  
                    RESTRICTED RIGHTS LEGEND
  
 Use, reproduction and disclosure by the US Government is
 subject to restrictions as set forth in subparagraphs (a)
 and (c) of the Commercial Computer Software - Restricted
 Rights clause in FAR 52.227-19.
  
 Gaussian, Inc.
 340 Quinnipiac St., Bldg. 40, Wallingford CT 06492
  
  
 ---------------------------------------------------------------
 Warning -- This program may not be used in any manner that
 competes with the business of Gaussian, Inc. or will provide
 assistance to any competitor of Gaussian, Inc.  The licensee
 of this program is prohibited from giving any competitor of
 Gaussian, Inc. access to this program.  By using this program,
 the user acknowledges that Gaussian, Inc. is engaged in the
 business of creating and licensing software in the field of
 computational chemistry and represents and warrants to the
 licensee that it is not a competitor of Gaussian, Inc. and that
 it will not use this program in any manner prohibited above.
 ---------------------------------------------------------------
  

 Cite this work as:
 Gaussian 09, Revision D.01,
 M. J. Frisch, G. W. Trucks, H. B. Schlegel, G. E. Scuseria, 
 M. A. Robb, J. R. Cheeseman, G. Scalmani, V. Barone, B. Mennucci, 
 G. A. Petersson, H. Nakatsuji, M. Caricato, X. Li, H. P. Hratchian, 
 A. F. Izmaylov, J. Bloino, G. Zheng, J. L. Sonnenberg, M. Hada, 
 M. Ehara, K. Toyota, R. Fukuda, J. Hasegawa, M. Ishida, T. Nakajima, 
 Y. Honda, O. Kitao, H. Nakai, T. Vreven, J. A. Montgomery, Jr., 
 J. E. Peralta, F. Ogliaro, M. Bearpark, J. J. Heyd, E. Brothers, 
 K. N. Kudin, V. N. Staroverov, T. Keith, R. Kobayashi, J. Normand, 
 K. Raghavachari, A. Rendell, J. C. Burant, S. S. Iyengar, J. Tomasi, 
 M. Cossi, N. Rega, J. M. Millam, M. Klene, J. E. Knox, J. B. Cross, 
 V. Bakken, C. Adamo, J. Jaramillo, R. Gomperts, R. E. Stratmann, 
 O. Yazyev, A. J. Austin, R. Cammi, C. Pomelli, J. W. Ochterski, 
 R. L. Martin, K. Morokuma, V. G. Zakrzewski, G. A. Voth, 
 P. Salvador, J. J. Dannenberg, S. Dapprich, A. D. Daniels, 
 O. Farkas, J. B. Foresman, J. V. Ortiz, J. Cioslowski, 
 and D. J. Fox, Gaussian, Inc., Wallingford CT, 2013.
 
 ******************************************
 Gaussian 09:  AM64L-G09RevD.01 24-Apr-2013
                20-Jun-2017 
 ******************************************
 %chk=H3PO42-h2o.chk
 Default route:  MaxDisk=56GB
 ----------------------------------------------
 # opt freq b3lyp/6-311g(d,p) geom=connectivity
 ----------------------------------------------
 1/14=-1,18=20,19=15,26=3,38=1,57=2/1,3;
 2/9=110,12=2,17=6,18=5,40=1/2;
 3/5=4,6=6,7=101,11=2,16=1,25=1,30=1,71=1,74=-5/1,2,3;
 4//1;
 5/5=2,38=5/2;
 6/7=2,8=2,9=2,10=2,28=1/1;
 7//1,2,3,16;
 1/14=-1,18=20,19=15,26=3/3(2);
 2/9=110/2;
 99//99;
 2/9=110/2;
 3/5=4,6=6,7=101,11=2,16=1,25=1,30=1,71=1,74=-5/1,2,3;
 4/5=5,16=3,69=1/1;
 5/5=2,38=5/2;
 7//1,2,3,16;
 1/14=-1,18=20,19=15,26=3/3(-5);
 2/9=110/2;
 6/7=2,8=2,9=2,10=2,19=2,28=1/1;
 99/9=1/99;
 -------------------
 Title Card Required
 -------------------
 Symbolic Z-matrix:
 Charge =  0 Multiplicity = 1
 P                    -0.97712  -0.74181  -1.10227 
 O                    -0.40711   0.06428  -2.49848 
 O                    -0.40711   0.06428   0.29394 
 H                     0.49829   0.35003   0.15181 
 O                    -0.40714  -2.35402  -1.10227 
 H                    -0.68181  -2.79102  -1.91171 
 O                    -2.68712  -0.74179  -1.10227 
 H                    -3.00758   0.16162  -1.15481 
 O                    -2.40954   1.45917  -1.60969 
 H                    -1.44954   1.45917  -1.60969 
 H                    -2.73      2.3641   -1.60969 
 
 Add virtual bond connecting atoms O9         and H8         Dist= 2.83D+00.

 GradGradGradGradGradGradGradGradGradGradGradGradGradGradGradGradGradGrad
 Berny optimization.
 Initialization pass.
                           ----------------------------
                           !    Initial Parameters    !
                           ! (Angstroms and Degrees)  !
 --------------------------                            --------------------------
 ! Name  Definition              Value          Derivative Info.                !
 --------------------------------------------------------------------------------
 ! R1    R(1,2)                  1.71           estimate D2E/DX2                !
 ! R2    R(1,3)                  1.71           estimate D2E/DX2                !
 ! R3    R(1,5)                  1.71           estimate D2E/DX2                !
 ! R4    R(1,7)                  1.71           estimate D2E/DX2                !
 ! R5    R(3,4)                  0.96           estimate D2E/DX2                !
 ! R6    R(5,6)                  0.96           estimate D2E/DX2                !
 ! R7    R(7,8)                  0.96           estimate D2E/DX2                !
 ! R8    R(8,9)                  1.4994         estimate D2E/DX2                !
 ! R9    R(9,10)                 0.96           estimate D2E/DX2                !
 ! R10   R(9,11)                 0.96           estimate D2E/DX2                !
 ! A1    A(2,1,3)              109.4713         estimate D2E/DX2                !
 ! A2    A(2,1,5)              109.4712         estimate D2E/DX2                !
 ! A3    A(2,1,7)              109.4712         estimate D2E/DX2                !
 ! A4    A(3,1,5)              109.4712         estimate D2E/DX2                !
 ! A5    A(3,1,7)              109.4712         estimate D2E/DX2                !
 ! A6    A(5,1,7)              109.4712         estimate D2E/DX2                !
 ! A7    A(1,3,4)              109.5            estimate D2E/DX2                !
 ! A8    A(1,5,6)              109.5            estimate D2E/DX2                !
 ! A9    A(1,7,8)              109.5012         estimate D2E/DX2                !
 ! A10   A(7,8,9)              134.2529         estimate D2E/DX2                !
 ! A11   A(8,9,10)             113.5064         estimate D2E/DX2                !
 ! A12   A(8,9,11)             133.0476         estimate D2E/DX2                !
 ! A13   A(10,9,11)            109.5            estimate D2E/DX2                !
 ! D1    D(2,1,3,4)            -39.3902         estimate D2E/DX2                !
 ! D2    D(5,1,3,4)             80.6098         estimate D2E/DX2                !
 ! D3    D(7,1,3,4)           -159.3902         estimate D2E/DX2                !
 ! D4    D(2,1,5,6)            -56.5599         estimate D2E/DX2                !
 ! D5    D(3,1,5,6)           -176.5599         estimate D2E/DX2                !
 ! D6    D(7,1,5,6)             63.4401         estimate D2E/DX2                !
 ! D7    D(2,1,7,8)            -56.6714         estimate D2E/DX2                !
 ! D8    D(3,1,7,8)             63.3286         estimate D2E/DX2                !
 ! D9    D(5,1,7,8)           -176.6714         estimate D2E/DX2                !
 ! D10   D(1,7,8,9)             20.6512         estimate D2E/DX2                !
 ! D11   D(7,8,9,10)           -21.2559         estimate D2E/DX2                !
 ! D12   D(7,8,9,11)          -175.9958         estimate D2E/DX2                !
 ! D13   D(8,9,10,11)         -160.6813         estimate D2E/DX2                !
 --------------------------------------------------------------------------------
 Trust Radius=3.00D-01 FncErr=1.00D-07 GrdErr=1.00D-06
 Number of steps in this run=     46 maximum allowed number of steps=    100.
 GradGradGradGradGradGradGradGradGradGradGradGradGradGradGradGradGradGrad

                          Input orientation:                          
 ---------------------------------------------------------------------
 Center     Atomic      Atomic             Coordinates (Angstroms)
 Number     Number       Type             X           Y           Z
 ---------------------------------------------------------------------
      1         15           0       -0.977116   -0.741812   -1.102271
      2          8           0       -0.407106    0.064282   -2.498480
      3          8           0       -0.407106    0.064282    0.293939
      4          1           0        0.498293    0.350028    0.151806
      5          8           0       -0.407136   -2.354022   -1.102271
      6          1           0       -0.681809   -2.791022   -1.911706
      7          8           0       -2.687116   -0.741791   -1.102271
      8          1           0       -3.007579    0.161616   -1.154813
      9          8           0       -2.409542    1.459168   -1.609686
     10          1           0       -1.449542    1.459168   -1.609686
     11          1           0       -2.729996    2.364104   -1.609686
 ---------------------------------------------------------------------
                    Distance matrix (angstroms):
                    1          2          3          4          5
     1  P    0.000000
     2  O    1.710000   0.000000
     3  O    1.710000   2.792419   0.000000
     4  H    2.222983   2.815211   0.960000   0.000000
     5  O    1.710000   2.792418   2.792418   3.115188   0.000000
     6  H    2.222983   2.927888   3.618438   3.939152   0.960000
     7  O    1.710000   2.792418   2.792418   3.593273   2.792418
     8  H    2.222998   2.928715   2.978391   3.746183   3.618494
     9  O    2.674627   2.597192   3.095035   3.576108   4.336764
    10  H    2.307590   1.955079   2.579955   2.850808   3.985537
    11  H    3.602329   3.387470   3.782696   4.192996   5.283358
                    6          7          8          9         10
     6  H    0.000000
     7  O    2.979227   0.000000
     8  H    3.834079   0.960000   0.000000
     9  O    4.597869   2.275685   1.499400   0.000000
    10  H    4.329521   2.575516   2.077988   0.960000   0.000000
    11  H    5.555323   3.147363   2.266036   0.960000   1.567952
                   11
    11  H    0.000000
 Stoichiometry    H5O5P
 Framework group  C1[X(H5O5P)]
 Deg. of freedom    27
 Full point group                 C1      NOp   1
 Largest Abelian subgroup         C1      NOp   1
 Largest concise Abelian subgroup C1      NOp   1
                         Standard orientation:                         
 ---------------------------------------------------------------------
 Center     Atomic      Atomic             Coordinates (Angstroms)
 Number     Number       Type             X           Y           Z
 ---------------------------------------------------------------------
      1         15           0       -0.452950    0.001847   -0.010334
      2          8           0        0.137197    0.127263    1.589696
      3          8           0       -0.283723    1.509089   -0.800070
      4          1           0       -0.494523    2.217385   -0.187305
      5          8           0       -2.104164   -0.441317    0.024252
      6          1           0       -2.205898   -1.260526    0.514300
      7          8           0        0.438891   -1.187647   -0.855215
      8          1           0        1.372633   -0.966066   -0.830159
      9          8           0        2.219000   -0.099378    0.053422
     10          1           0        1.718328    0.568414    0.527743
     11          1           0        3.146102    0.149006    0.033750
 ---------------------------------------------------------------------
 Rotational constants (GHZ):      3.7710935      2.0696052      2.0147619
 Standard basis: 6-311G(d,p) (5D, 7F)
 There are   152 symmetry adapted cartesian basis functions of A   symmetry.
 There are   146 symmetry adapted basis functions of A   symmetry.
   146 basis functions,   246 primitive gaussians,   152 cartesian basis functions
    30 alpha electrons       30 beta electrons
       nuclear repulsion energy       359.9699799142 Hartrees.
 NAtoms=   11 NActive=   11 NUniq=   11 SFac= 1.00D+00 NAtFMM=   60 NAOKFM=F Big=F
 Integral buffers will be    131072 words long.
 Raffenetti 2 integral format.
 Two-electron integral symmetry is turned on.
 One-electron integrals computed using PRISM.
 NBasis=   146 RedAO= T EigKep=  9.15D-03  NBF=   146
 NBsUse=   146 1.00D-06 EigRej= -1.00D+00 NBFU=   146
 ExpMin= 6.85D-02 ExpMax= 7.75D+04 ExpMxC= 2.65D+03 IAcc=2 IRadAn=         4 AccDes= 0.00D+00
 Harris functional with IExCor=  402 and IRadAn=       4 diagonalized for initial guess.
 HarFok:  IExCor=  402 AccDes= 0.00D+00 IRadAn=         4 IDoV= 1 UseB2=F ITyADJ=14
 ICtDFT=  3500011 ScaDFX=  1.000000  1.000000  1.000000  1.000000
 FoFCou: FMM=F IPFlag=           0 FMFlag=      100000 FMFlg1=           0
         NFxFlg=           0 DoJE=T BraDBF=F KetDBF=T FulRan=T
         wScrn=  0.000000 ICntrl=     500 IOpCl=  0 I1Cent=   200000004 NGrid=           0
         NMat0=    1 NMatS0=      1 NMatT0=    0 NMatD0=    1 NMtDS0=    0 NMtDT0=    0
 Petite list used in FoFCou.
 Keep R1 ints in memory in canonical form, NReq=59463473.
 Requested convergence on RMS density matrix=1.00D-08 within 128 cycles.
 Requested convergence on MAX density matrix=1.00D-06.
 Requested convergence on             energy=1.00D-06.
 No special actions if energy rises.
 Integral accuracy reduced to 1.0D-05 until final iterations.
 EnCoef did     6 forward-backward iterations
 Initial convergence to 1.0D-05 achieved.  Increase integral accuracy.
 SCF Done:  E(RB3LYP) =  -720.641996939     A.U. after   16 cycles
            NFock= 16  Conv=0.94D-08     -V/T= 2.0028

 **********************************************************************

            Population analysis using the SCF density.

 **********************************************************************

 Orbital symmetries:
       Occupied  (A) (A) (A) (A) (A) (A) (A) (A) (A) (A) (A) (A)
                 (A) (A) (A) (A) (A) (A) (A) (A) (A) (A) (A) (A)
                 (A) (A) (A) (A) (A) (A)
       Virtual   (A) (A) (A) (A) (A) (A) (A) (A) (A) (A) (A) (A)
                 (A) (A) (A) (A) (A) (A) (A) (A) (A) (A) (A) (A)
                 (A) (A) (A) (A) (A) (A) (A) (A) (A) (A) (A) (A)
                 (A) (A) (A) (A) (A) (A) (A) (A) (A) (A) (A) (A)
                 (A) (A) (A) (A) (A) (A) (A) (A) (A) (A) (A) (A)
                 (A) (A) (A) (A) (A) (A) (A) (A) (A) (A) (A) (A)
                 (A) (A) (A) (A) (A) (A) (A) (A) (A) (A) (A) (A)
                 (A) (A) (A) (A) (A) (A) (A) (A) (A) (A) (A) (A)
                 (A) (A) (A) (A) (A) (A) (A) (A) (A) (A) (A) (A)
                 (A) (A) (A) (A) (A) (A) (A) (A)
 The electronic state is 1-A.
 Alpha  occ. eigenvalues --  -77.24521 -19.19009 -19.18593 -19.14724 -19.13481
 Alpha  occ. eigenvalues --  -19.08515  -6.71769  -4.88085  -4.88014  -4.87808
 Alpha  occ. eigenvalues --   -1.08946  -1.05568  -1.05432  -1.01500  -0.90371
 Alpha  occ. eigenvalues --   -0.66748  -0.58352  -0.56483  -0.56149  -0.48595
 Alpha  occ. eigenvalues --   -0.45353  -0.43584  -0.40286  -0.38843  -0.37114
 Alpha  occ. eigenvalues --   -0.36488  -0.34326  -0.33046  -0.27422  -0.26640
 Alpha virt. eigenvalues --   -0.04470   0.02331   0.03361   0.04618   0.06485
 Alpha virt. eigenvalues --    0.07794   0.09361   0.13970   0.16102   0.19035
 Alpha virt. eigenvalues --    0.20175   0.22421   0.35342   0.35804   0.37306
 Alpha virt. eigenvalues --    0.39745   0.41595   0.46466   0.56344   0.57619
 Alpha virt. eigenvalues --    0.69649   0.71096   0.74308   0.75531   0.79112
 Alpha virt. eigenvalues --    0.82074   0.83710   0.83926   0.85279   0.87066
 Alpha virt. eigenvalues --    0.87846   0.89924   0.91880   0.93440   0.97575
 Alpha virt. eigenvalues --    0.99414   1.01700   1.07091   1.15522   1.20137
 Alpha virt. eigenvalues --    1.22180   1.27314   1.28111   1.32336   1.32897
 Alpha virt. eigenvalues --    1.35688   1.41949   1.44545   1.46375   1.54745
 Alpha virt. eigenvalues --    1.60387   1.64240   1.67315   1.68449   1.75154
 Alpha virt. eigenvalues --    1.82162   1.93444   1.94532   1.98070   2.05527
 Alpha virt. eigenvalues --    2.20791   2.33939   2.37592   2.40626   2.44542
 Alpha virt. eigenvalues --    2.57707   2.78965   2.81169   2.83697   2.88239
 Alpha virt. eigenvalues --    2.91058   2.93296   2.94905   2.95902   3.01108
 Alpha virt. eigenvalues --    3.05916   3.06211   3.06568   3.07573   3.08745
 Alpha virt. eigenvalues --    3.14782   3.17267   3.24865   3.27512   3.33358
 Alpha virt. eigenvalues --    3.46931   3.65567   3.67588   3.70882   3.78843
 Alpha virt. eigenvalues --    3.85238   4.73028   4.73870   4.76931   4.79586
 Alpha virt. eigenvalues --    4.80231   4.82947   4.86043   4.95124   4.97703
 Alpha virt. eigenvalues --    5.00195   5.24500   5.38370   5.40143   5.50293
 Alpha virt. eigenvalues --    5.64504   6.80464  13.75595  13.76788  13.84658
 Alpha virt. eigenvalues --   49.75152  49.75921  49.79506  49.84514  49.89666
 Alpha virt. eigenvalues --  162.80516
          Condensed to atoms (all electrons):
               1          2          3          4          5          6
     1  P   12.661698   0.408677   0.232139  -0.022975   0.271176  -0.019710
     2  O    0.408677   8.298444  -0.024896   0.000563  -0.023651   0.000130
     3  O    0.232139  -0.024896   8.030771   0.316767  -0.013756  -0.001290
     4  H   -0.022975   0.000563   0.316767   0.394206  -0.000520  -0.000242
     5  O    0.271176  -0.023651  -0.013756  -0.000520   7.975122   0.315469
     6  H   -0.019710   0.000130  -0.001290  -0.000242   0.315469   0.394957
     7  O    0.293010  -0.023480  -0.016939  -0.000782  -0.016726  -0.001197
     8  H   -0.037199  -0.001301  -0.000227  -0.000227  -0.001223  -0.000128
     9  O   -0.001081  -0.027167  -0.001932  -0.000109  -0.000055  -0.000024
    10  H   -0.014565   0.048001   0.003618   0.000578   0.000550  -0.000225
    11  H    0.004091   0.001583  -0.000176  -0.000013   0.000008   0.000000
               7          8          9         10         11
     1  P    0.293010  -0.037199  -0.001081  -0.014565   0.004091
     2  O   -0.023480  -0.001301  -0.027167   0.048001   0.001583
     3  O   -0.016939  -0.000227  -0.001932   0.003618  -0.000176
     4  H   -0.000782  -0.000227  -0.000109   0.000578  -0.000013
     5  O   -0.016726  -0.001223  -0.000055   0.000550   0.000008
     6  H   -0.001197  -0.000128  -0.000024  -0.000225   0.000000
     7  O    8.056826   0.316429  -0.079369   0.002581   0.003902
     8  H    0.316429   0.321169   0.082904  -0.013803  -0.006049
     9  O   -0.079369   0.082904   7.940782   0.281952   0.303417
    10  H    0.002581  -0.013803   0.281952   0.437498  -0.014010
    11  H    0.003902  -0.006049   0.303417  -0.014010   0.443528
 Mulliken charges:
               1
     1  P    1.224738
     2  O   -0.656904
     3  O   -0.524079
     4  H    0.312753
     5  O   -0.506396
     6  H    0.312261
     7  O   -0.534255
     8  H    0.339656
     9  O   -0.499317
    10  H    0.267824
    11  H    0.263719
 Sum of Mulliken charges =   0.00000
 Mulliken charges with hydrogens summed into heavy atoms:
               1
     1  P    1.224738
     2  O   -0.656904
     3  O   -0.211326
     5  O   -0.194134
     7  O   -0.194599
     9  O    0.032226
 Electronic spatial extent (au):  <R**2>=            701.8249
 Charge=              0.0000 electrons
 Dipole moment (field-independent basis, Debye):
    X=              1.0399    Y=              1.4424    Z=             -0.8556  Tot=              1.9733
 Quadrupole moment (field-independent basis, Debye-Ang):
   XX=            -31.9316   YY=            -36.6128   ZZ=            -51.1534
   XY=              4.0419   XZ=             -3.0623   YZ=             -0.1459
 Traceless Quadrupole moment (field-independent basis, Debye-Ang):
   XX=              7.9677   YY=              3.2865   ZZ=            -11.2542
   XY=              4.0419   XZ=             -3.0623   YZ=             -0.1459
 Octapole moment (field-independent basis, Debye-Ang**2):
  XXX=             40.4306  YYY=             13.9765  ZZZ=             -9.9172  XYY=             -7.8574
  XXY=             -3.9183  XXZ=              3.9130  XZZ=              0.8869  YZZ=             -2.8639
  YYZ=              6.7563  XYZ=              5.6085
 Hexadecapole moment (field-independent basis, Debye-Ang**3):
 XXXX=           -308.7621 YYYY=           -149.9078 ZZZZ=           -200.1812 XXXY=             31.5861
 XXXZ=            -15.0399 YYYX=              1.3135 YYYZ=             -2.1524 ZZZX=             -2.8194
 ZZZY=             -1.3264 XXYY=            -82.4361 XXZZ=            -98.2861 YYZZ=            -68.0525
 XXYZ=             -1.4657 YYXZ=             -6.7729 ZZXY=              2.3859
 N-N= 3.599699799142D+02 E-N=-2.428539197719D+03  KE= 7.186443040205D+02
 Calling FoFJK, ICntrl=      2127 FMM=F ISym2X=0 I1Cent= 0 IOpClX= 0 NMat=1 NMatS=1 NMatT=0.
 ***** Axes restored to original set *****
 -------------------------------------------------------------------
 Center     Atomic                   Forces (Hartrees/Bohr)
 Number     Number              X              Y              Z
 -------------------------------------------------------------------
      1       15           0.018098874    0.043254329   -0.102466778
      2        8          -0.032846321   -0.060574919    0.112031445
      3        8          -0.031139316   -0.038777725   -0.029513203
      4        1           0.007122651   -0.000464989   -0.005128455
      5        8          -0.022857671    0.052623605    0.024744446
      6        1          -0.002952599    0.000568700   -0.007911577
      7        8           0.072950828   -0.075326885    0.028733050
      8        1           0.004119052    0.022996292   -0.005444555
      9        8          -0.024208553    0.048996681   -0.000635795
     10        1           0.009237833    0.003517739   -0.015168240
     11        1           0.002475223    0.003187173    0.000759663
 -------------------------------------------------------------------
 Cartesian Forces:  Max     0.112031445 RMS     0.040122257

 GradGradGradGradGradGradGradGradGradGradGradGradGradGradGradGradGradGrad
 Berny optimization.
 FormGI is forming the generalized inverse of G from B-inverse, IUseBI=4.
 Internal  Forces:  Max     0.130975839 RMS     0.039462221
 Search for a local minimum.
 Step number   1 out of a maximum of   46
 All quantities printed in internal units (Hartrees-Bohrs-Radians)
 Mixed Optimization -- RFO/linear search
 Second derivative matrix not updated -- first step.
 ITU=  0
     Eigenvalues ---    0.00230   0.01401   0.01558   0.01958   0.01958
     Eigenvalues ---    0.01958   0.11175   0.11348   0.13585   0.13585
     Eigenvalues ---    0.15259   0.16000   0.16000   0.16000   0.16000
     Eigenvalues ---    0.22113   0.22113   0.25000   0.34713   0.34713
     Eigenvalues ---    0.34713   0.34713   0.55473   0.55473   0.55473
     Eigenvalues ---    0.55473   0.55473
 RFO step:  Lambda=-1.41482036D-01 EMin= 2.30000000D-03
 Linear search not attempted -- first point.
 Maximum step size (   0.300) exceeded in Quadratic search.
    -- Step size scaled by   0.550
 Iteration  1 RMS(Cart)=  0.24867445 RMS(Int)=  0.01727177
 Iteration  2 RMS(Cart)=  0.03725901 RMS(Int)=  0.00053448
 Iteration  3 RMS(Cart)=  0.00081975 RMS(Int)=  0.00037788
 Iteration  4 RMS(Cart)=  0.00000031 RMS(Int)=  0.00037788
 Variable       Old X    -DE/DX   Delta X   Delta X   Delta X     New X
                                 (Linear)    (Quad)   (Total)
    R1        3.23143  -0.13098   0.00000  -0.14748  -0.14748   3.08395
    R2        3.23143  -0.05479   0.00000  -0.06170  -0.06170   3.16973
    R3        3.23143  -0.05875   0.00000  -0.06616  -0.06616   3.16527
    R4        3.23143  -0.06457   0.00000  -0.07270  -0.07270   3.15873
    R5        1.81414   0.00734   0.00000   0.00580   0.00580   1.81994
    R6        1.81414   0.00726   0.00000   0.00574   0.00574   1.81987
    R7        1.81414   0.07797   0.00000   0.06162   0.06162   1.87576
    R8        2.83346   0.04778   0.00000   0.10310   0.10310   2.93655
    R9        1.81414   0.00924   0.00000   0.00730   0.00730   1.82144
   R10        1.81414   0.00218   0.00000   0.00172   0.00172   1.81586
    A1        1.91063   0.00252   0.00000   0.00940   0.00949   1.92012
    A2        1.91063   0.00842   0.00000   0.01868   0.01889   1.92953
    A3        1.91063   0.02691   0.00000   0.05416   0.05425   1.96488
    A4        1.91063  -0.01373   0.00000  -0.03223  -0.03320   1.87744
    A5        1.91063  -0.00805   0.00000  -0.01901  -0.02018   1.89046
    A6        1.91063  -0.01607   0.00000  -0.03099  -0.03196   1.87867
    A7        1.91114  -0.00864   0.00000  -0.01576  -0.01576   1.89538
    A8        1.91114  -0.00759   0.00000  -0.01385  -0.01385   1.89728
    A9        1.91116   0.06295   0.00000   0.11489   0.11489   2.02605
   A10        2.34316   0.10069   0.00000   0.14151   0.14151   2.48466
   A11        1.98106   0.01018   0.00000   0.02049   0.02029   2.00135
   A12        2.32212  -0.00228   0.00000  -0.00243  -0.00264   2.31948
   A13        1.91114  -0.00428   0.00000  -0.00574  -0.00594   1.90520
    D1       -0.68749   0.00820   0.00000   0.01546   0.01547  -0.67202
    D2        1.40691   0.01165   0.00000   0.02435   0.02388   1.43079
    D3       -2.78188  -0.02137   0.00000  -0.04499  -0.04453  -2.82641
    D4       -0.98716  -0.00879   0.00000  -0.01616  -0.01621  -1.00336
    D5       -3.08155  -0.00862   0.00000  -0.01937  -0.01868  -3.10023
    D6        1.10724   0.01949   0.00000   0.04264   0.04200   1.14924
    D7       -0.98910   0.00571   0.00000   0.01822   0.01810  -0.97100
    D8        1.10529   0.02035   0.00000   0.05126   0.05087   1.15616
    D9       -3.08350  -0.01124   0.00000  -0.01885  -0.01834  -3.10184
   D10        0.36043   0.04319   0.00000   0.15129   0.15129   0.51173
   D11       -0.37098   0.01770   0.00000   0.06595   0.06596  -0.30503
   D12       -3.07171   0.00697   0.00000   0.02843   0.02843  -3.04327
   D13       -2.80442  -0.00776   0.00000  -0.02779  -0.02786  -2.83228
         Item               Value     Threshold  Converged?
 Maximum Force            0.130976     0.000450     NO 
 RMS     Force            0.039462     0.000300     NO 
 Maximum Displacement     0.652474     0.001800     NO 
 RMS     Displacement     0.277981     0.001200     NO 
 Predicted change in Energy=-6.539185D-02
 GradGradGradGradGradGradGradGradGradGradGradGradGradGradGradGradGradGrad

                          Input orientation:                          
 ---------------------------------------------------------------------
 Center     Atomic      Atomic             Coordinates (Angstroms)
 Number     Number       Type             X           Y           Z
 ---------------------------------------------------------------------
      1         15           0       -0.855490   -0.801940   -1.083330
      2          8           0       -0.174921   -0.060012   -2.367715
      3          8           0       -0.295573   -0.113900    0.340256
      4          1           0        0.639451    0.091484    0.235115
      5          8           0       -0.444349   -2.425458   -1.056102
      6          1           0       -0.725669   -2.829238   -1.883905
      7          8           0       -2.523994   -0.702066   -1.094251
      8          1           0       -2.906136    0.212579   -1.145873
      9          8           0       -2.614731    1.639105   -1.688910
     10          1           0       -1.691314    1.804443   -1.910259
     11          1           0       -3.073028    2.479006   -1.600151
 ---------------------------------------------------------------------
                    Distance matrix (angstroms):
                    1          2          3          4          5
     1  P    0.000000
     2  O    1.631954   0.000000
     3  O    1.677350   2.711193   0.000000
     4  H    2.184342   2.731461   0.963071   0.000000
     5  O    1.674990   2.718134   2.704672   3.029333   0.000000
     6  H    2.183509   2.864613   3.536232   3.858033   0.963035
     7  O    1.671526   2.748106   2.714703   3.521977   2.701196
     8  H    2.288735   3.004453   3.021624   3.806965   3.609390
     9  O    3.069259   3.049663   3.545283   4.084936   4.650986
    10  H    2.859308   2.446407   3.270008   3.601295   4.491834
    11  H    3.993643   3.928714   4.266451   4.780268   5.591039
                    6          7          8          9         10
     6  H    0.000000
     7  O    2.895236   0.000000
     8  H    3.814679   0.992609   0.000000
     9  O    4.855169   2.417215   1.553957   0.000000
    10  H    4.733304   2.764382   2.143387   0.963862   0.000000
    11  H    5.811030   3.267505   2.317523   0.960911   1.568546
                   11
    11  H    0.000000
 Stoichiometry    H5O5P
 Framework group  C1[X(H5O5P)]
 Deg. of freedom    27
 Full point group                 C1      NOp   1
 Largest Abelian subgroup         C1      NOp   1
 Largest concise Abelian subgroup C1      NOp   1
                         Standard orientation:                         
 ---------------------------------------------------------------------
 Center     Atomic      Atomic             Coordinates (Angstroms)
 Number     Number       Type             X           Y           Z
 ---------------------------------------------------------------------
      1         15           0       -0.509385    0.001035    0.020191
      2          8           0       -0.057277    0.327888    1.553827
      3          8           0       -0.523028    1.411620   -0.887314
      4          1           0       -0.860540    2.127012   -0.337945
      5          8           0       -2.057885   -0.636637   -0.013181
      6          1           0       -2.077685   -1.428517    0.534514
      7          8           0        0.506168   -1.095397   -0.728469
      8          1           0        1.469253   -0.855850   -0.747304
      9          8           0        2.558854   -0.075721    0.039429
     10          1           0        2.216437    0.557268    0.680604
     11          1           0        3.478652    0.130531   -0.147068
 ---------------------------------------------------------------------
 Rotational constants (GHZ):      3.9417253      1.8415613      1.8026932
 Standard basis: 6-311G(d,p) (5D, 7F)
 There are   152 symmetry adapted cartesian basis functions of A   symmetry.
 There are   146 symmetry adapted basis functions of A   symmetry.
   146 basis functions,   246 primitive gaussians,   152 cartesian basis functions
    30 alpha electrons       30 beta electrons
       nuclear repulsion energy       355.6883672034 Hartrees.
 NAtoms=   11 NActive=   11 NUniq=   11 SFac= 1.00D+00 NAtFMM=   60 NAOKFM=F Big=F
 Integral buffers will be    131072 words long.
 Raffenetti 2 integral format.
 Two-electron integral symmetry is turned on.
 One-electron integrals computed using PRISM.
 NBasis=   146 RedAO= T EigKep=  1.02D-02  NBF=   146
 NBsUse=   146 1.00D-06 EigRej= -1.00D+00 NBFU=   146
 Initial guess from the checkpoint file:  "H3PO42-h2o.chk"
 B after Tr=     0.000000    0.000000    0.000000
         Rot=    0.998804    0.034991    0.005466   -0.033723 Ang=   5.61 deg.
 ExpMin= 6.85D-02 ExpMax= 7.75D+04 ExpMxC= 2.65D+03 IAcc=2 IRadAn=         4 AccDes= 0.00D+00
 Harris functional with IExCor=  402 and IRadAn=       4 diagonalized for initial guess.
 HarFok:  IExCor=  402 AccDes= 0.00D+00 IRadAn=         4 IDoV= 1 UseB2=F ITyADJ=14
 ICtDFT=  3500011 ScaDFX=  1.000000  1.000000  1.000000  1.000000
 FoFCou: FMM=F IPFlag=           0 FMFlag=      100000 FMFlg1=           0
         NFxFlg=           0 DoJE=T BraDBF=F KetDBF=T FulRan=T
         wScrn=  0.000000 ICntrl=     500 IOpCl=  0 I1Cent=   200000004 NGrid=           0
         NMat0=    1 NMatS0=      1 NMatT0=    0 NMatD0=    1 NMtDS0=    0 NMtDT0=    0
 Petite list used in FoFCou.
 Keep R1 ints in memory in canonical form, NReq=59463473.
 Requested convergence on RMS density matrix=1.00D-08 within 128 cycles.
 Requested convergence on MAX density matrix=1.00D-06.
 Requested convergence on             energy=1.00D-06.
 No special actions if energy rises.
 Integral accuracy reduced to 1.0D-05 until final iterations.
 Initial convergence to 1.0D-05 achieved.  Increase integral accuracy.
 SCF Done:  E(RB3LYP) =  -720.694294076     A.U. after   13 cycles
            NFock= 13  Conv=0.93D-08     -V/T= 2.0028
 Calling FoFJK, ICntrl=      2127 FMM=F ISym2X=0 I1Cent= 0 IOpClX= 0 NMat=1 NMatS=1 NMatT=0.
 ***** Axes restored to original set *****
 -------------------------------------------------------------------
 Center     Atomic                   Forces (Hartrees/Bohr)
 Number     Number              X              Y              Z
 -------------------------------------------------------------------
      1       15           0.020303187    0.052073064   -0.083788318
      2        8          -0.045954910   -0.045239891    0.088472623
      3        8          -0.023577107   -0.028213302   -0.024269257
      4        1           0.002986882    0.000264920   -0.002724316
      5        8          -0.017544659    0.039583060    0.015882953
      6        1          -0.000266481   -0.000098385   -0.003762197
      7        8           0.051230149   -0.035867234    0.021424256
      8        1           0.017365183   -0.000490858   -0.005412899
      9        8          -0.009968264    0.019316677   -0.000824455
     10        1           0.002619292   -0.002958711   -0.004762684
     11        1           0.002806727    0.001630660   -0.000235706
 -------------------------------------------------------------------
 Cartesian Forces:  Max     0.088472623 RMS     0.030872060

 GradGradGradGradGradGradGradGradGradGradGradGradGradGradGradGradGradGrad
 Berny optimization.
 Using GEDIIS/GDIIS optimizer.
 FormGI is forming the generalized inverse of G from B-inverse, IUseBI=4.
 Internal  Forces:  Max     0.109361774 RMS     0.025047291
 Search for a local minimum.
 Step number   2 out of a maximum of   46
 All quantities printed in internal units (Hartrees-Bohrs-Radians)
 Mixed Optimization -- RFO/linear search
 Update second derivatives using D2CorX and points    1    2
 DE= -5.23D-02 DEPred=-6.54D-02 R= 8.00D-01
 TightC=F SS=  1.41D+00  RLast= 3.56D-01 DXNew= 5.0454D-01 1.0693D+00
 Trust test= 8.00D-01 RLast= 3.56D-01 DXMaxT set to 5.05D-01
 ITU=  1  0
 Use linear search instead of GDIIS.
 Linear search step of   0.601 exceeds DXMaxT=   0.505 but not scaled.
 Quartic linear search produced a step of  2.00000.
 Iteration  1 RMS(Cart)=  0.35482026 RMS(Int)=  0.05296360
 Iteration  2 RMS(Cart)=  0.16928213 RMS(Int)=  0.01414558
 Iteration  3 RMS(Cart)=  0.01802947 RMS(Int)=  0.00227994
 Iteration  4 RMS(Cart)=  0.00017563 RMS(Int)=  0.00227787
 Iteration  5 RMS(Cart)=  0.00000007 RMS(Int)=  0.00227787
 Variable       Old X    -DE/DX   Delta X   Delta X   Delta X     New X
                                 (Linear)    (Quad)   (Total)
    R1        3.08395  -0.10936  -0.29497   0.00000  -0.29497   2.78898
    R2        3.16973  -0.04125  -0.12340   0.00000  -0.12340   3.04633
    R3        3.16527  -0.04245  -0.13232   0.00000  -0.13232   3.03295
    R4        3.15873  -0.06510  -0.14541   0.00000  -0.14541   3.01332
    R5        1.81994   0.00325   0.01161   0.00000   0.01161   1.83155
    R6        1.81987   0.00335   0.01147   0.00000   0.01147   1.83135
    R7        1.87576   0.01177   0.12324   0.00000   0.12324   1.99900
    R8        2.93655   0.01770   0.20619   0.00000   0.20619   3.14274
    R9        1.82144   0.00310   0.01460   0.00000   0.01460   1.83603
   R10        1.81586   0.00006   0.00344   0.00000   0.00344   1.81930
    A1        1.92012   0.00629   0.01897   0.00000   0.01930   1.93942
    A2        1.92953   0.01297   0.03779   0.00000   0.03869   1.96821
    A3        1.96488   0.00789   0.10850   0.00000   0.10882   2.07371
    A4        1.87744  -0.01215  -0.06640   0.00000  -0.07189   1.80554
    A5        1.89046  -0.00700  -0.04035   0.00000  -0.04700   1.84346
    A6        1.87867  -0.00958  -0.06392   0.00000  -0.06943   1.80925
    A7        1.89538  -0.00431  -0.03152   0.00000  -0.03152   1.86386
    A8        1.89728  -0.00212  -0.02770   0.00000  -0.02770   1.86958
    A9        2.02605  -0.02406   0.22978   0.00000   0.22978   2.25583
   A10        2.48466   0.01223   0.28302   0.00000   0.28302   2.76768
   A11        2.00135  -0.00378   0.04059   0.00000   0.03944   2.04080
   A12        2.31948   0.00424  -0.00528   0.00000  -0.00650   2.31298
   A13        1.90520   0.00023  -0.01187   0.00000  -0.01303   1.89217
    D1       -0.67202  -0.00066   0.03093   0.00000   0.03093  -0.64109
    D2        1.43079   0.01133   0.04776   0.00000   0.04459   1.47538
    D3       -2.82641  -0.00986  -0.08906   0.00000  -0.08587  -2.91229
    D4       -1.00336  -0.00056  -0.03242   0.00000  -0.03278  -1.03615
    D5       -3.10023  -0.00828  -0.03735   0.00000  -0.03285  -3.13308
    D6        1.14924   0.01104   0.08400   0.00000   0.07987   1.22911
    D7       -0.97100   0.00844   0.03621   0.00000   0.03559  -0.93541
    D8        1.15616   0.01663   0.10174   0.00000   0.09900   1.25516
    D9       -3.10184  -0.00624  -0.03669   0.00000  -0.03333  -3.13517
   D10        0.51173   0.01385   0.30259   0.00000   0.30259   0.81431
   D11       -0.30503   0.00618   0.13191   0.00000   0.13188  -0.17315
   D12       -3.04327   0.00419   0.05686   0.00000   0.05689  -2.98638
   D13       -2.83228  -0.00272  -0.05573   0.00000  -0.05612  -2.88840
         Item               Value     Threshold  Converged?
 Maximum Force            0.109362     0.000450     NO 
 RMS     Force            0.025047     0.000300     NO 
 Maximum Displacement     1.186524     0.001800     NO 
 RMS     Displacement     0.496033     0.001200     NO 
 Predicted change in Energy=-1.755093D-02
 GradGradGradGradGradGradGradGradGradGradGradGradGradGradGradGradGradGrad

                          Input orientation:                          
 ---------------------------------------------------------------------
 Center     Atomic      Atomic             Coordinates (Angstroms)
 Number     Number       Type             X           Y           Z
 ---------------------------------------------------------------------
      1         15           0       -0.605842   -0.884279   -1.068130
      2          8           0        0.281669   -0.360944   -2.124832
      3          8           0       -0.126845   -0.390800    0.389863
      4          1           0        0.842287   -0.384593    0.378949
      5          8           0       -0.559774   -2.484550   -0.954388
      6          1           0       -0.833407   -2.839599   -1.813592
      7          8           0       -2.164663   -0.556642   -1.141691
      8          1           0       -2.648316    0.380141   -1.228374
      9          8           0       -2.971874    1.908526   -1.798590
     10          1           0       -2.319196    2.300227   -2.402379
     11          1           0       -3.559793    2.606513   -1.491963
 ---------------------------------------------------------------------
                    Distance matrix (angstroms):
                    1          2          3          4          5
     1  P    0.000000
     2  O    1.475863   0.000000
     3  O    1.612050   2.547836   0.000000
     4  H    2.107321   2.565886   0.969214   0.000000
     5  O    1.604969   2.566645   2.525515   2.855413   0.000000
     6  H    2.104941   2.735690   3.369134   3.693541   0.969106
     7  O    1.594579   2.643748   2.554577   3.373974   2.515468
     8  H    2.407517   3.152405   3.093680   3.918241   3.555774
     9  O    3.732485   3.980260   4.262678   4.954584   5.082324
    10  H    3.854462   3.731402   4.454733   4.993898   5.299654
    11  H    4.592504   4.895217   4.930546   5.641395   5.933634
                    6          7          8          9         10
     6  H    0.000000
     7  O    2.726828   0.000000
     8  H    3.742072   1.057826   0.000000
     9  O    5.207491   2.675848   1.663069   0.000000
    10  H    5.382569   3.126486   2.274498   0.971586   0.000000
    11  H    6.098915   3.474856   2.420124   0.962733   1.568997
                   11
    11  H    0.000000
 Stoichiometry    H5O5P
 Framework group  C1[X(H5O5P)]
 Deg. of freedom    27
 Full point group                 C1      NOp   1
 Largest Abelian subgroup         C1      NOp   1
 Largest concise Abelian subgroup C1      NOp   1
                         Standard orientation:                         
 ---------------------------------------------------------------------
 Center     Atomic      Atomic             Coordinates (Angstroms)
 Number     Number       Type             X           Y           Z
 ---------------------------------------------------------------------
      1         15           0       -0.614263    0.017723    0.083094
      2          8           0       -0.547483    0.543039    1.460685
      3          8           0       -0.837584    1.207075   -0.981930
      4          1           0       -1.429683    1.850199   -0.563377
      5          8           0       -1.879874   -0.939901   -0.155882
      6          1           0       -1.802330   -1.676458    0.469127
      7          8           0        0.612997   -0.833710   -0.475098
      8          1           0        1.640326   -0.583881   -0.509391
      9          8           0        3.117338   -0.030024    0.017369
     10          1           0        3.135797    0.426482    0.874831
     11          1           0        3.946692    0.145971   -0.438757
 ---------------------------------------------------------------------
 Rotational constants (GHZ):      4.3698776      1.5119653      1.4888731
 Standard basis: 6-311G(d,p) (5D, 7F)
 There are   152 symmetry adapted cartesian basis functions of A   symmetry.
 There are   146 symmetry adapted basis functions of A   symmetry.
   146 basis functions,   246 primitive gaussians,   152 cartesian basis functions
    30 alpha electrons       30 beta electrons
       nuclear repulsion energy       356.4834272800 Hartrees.
 NAtoms=   11 NActive=   11 NUniq=   11 SFac= 1.00D+00 NAtFMM=   60 NAOKFM=F Big=F
 Integral buffers will be    131072 words long.
 Raffenetti 2 integral format.
 Two-electron integral symmetry is turned on.
 One-electron integrals computed using PRISM.
 NBasis=   146 RedAO= T EigKep=  9.34D-03  NBF=   146
 NBsUse=   146 1.00D-06 EigRej= -1.00D+00 NBFU=   146
 Initial guess from the checkpoint file:  "H3PO42-h2o.chk"
 B after Tr=     0.000000    0.000000    0.000000
         Rot=    0.997594    0.043980    0.020191   -0.049635 Ang=   7.95 deg.
 ExpMin= 6.85D-02 ExpMax= 7.75D+04 ExpMxC= 2.65D+03 IAcc=2 IRadAn=         4 AccDes= 0.00D+00
 Harris functional with IExCor=  402 and IRadAn=       4 diagonalized for initial guess.
 HarFok:  IExCor=  402 AccDes= 0.00D+00 IRadAn=         4 IDoV= 1 UseB2=F ITyADJ=14
 ICtDFT=  3500011 ScaDFX=  1.000000  1.000000  1.000000  1.000000
 FoFCou: FMM=F IPFlag=           0 FMFlag=      100000 FMFlg1=           0
         NFxFlg=           0 DoJE=T BraDBF=F KetDBF=T FulRan=T
         wScrn=  0.000000 ICntrl=     500 IOpCl=  0 I1Cent=   200000004 NGrid=           0
         NMat0=    1 NMatS0=      1 NMatT0=    0 NMatD0=    1 NMtDS0=    0 NMtDT0=    0
 Petite list used in FoFCou.
 Keep R1 ints in memory in canonical form, NReq=59463473.
 Requested convergence on RMS density matrix=1.00D-08 within 128 cycles.
 Requested convergence on MAX density matrix=1.00D-06.
 Requested convergence on             energy=1.00D-06.
 No special actions if energy rises.
 Integral accuracy reduced to 1.0D-05 until final iterations.
 Initial convergence to 1.0D-05 achieved.  Increase integral accuracy.
 SCF Done:  E(RB3LYP) =  -720.724762697     A.U. after   14 cycles
            NFock= 14  Conv=0.50D-08     -V/T= 2.0021
 Calling FoFJK, ICntrl=      2127 FMM=F ISym2X=0 I1Cent= 0 IOpClX= 0 NMat=1 NMatS=1 NMatT=0.
 ***** Axes restored to original set *****
 -------------------------------------------------------------------
 Center     Atomic                   Forces (Hartrees/Bohr)
 Number     Number              X              Y              Z
 -------------------------------------------------------------------
      1       15          -0.006785653    0.021442703   -0.003491276
      2        8          -0.002347167    0.003766317   -0.007699666
      3        8           0.000023406   -0.005882397    0.002282894
      4        1          -0.004020846    0.002462364    0.002840872
      5        8          -0.009836820   -0.003298246   -0.002887203
      6        1           0.002916730   -0.003841488    0.004595932
      7        8          -0.015784428    0.023613995    0.003554763
      8        1           0.036876403   -0.035592409   -0.001287315
      9        8           0.002664614    0.001071822   -0.003364110
     10        1          -0.006353484   -0.003501303    0.006403283
     11        1           0.002647245   -0.000241356   -0.000948173
 -------------------------------------------------------------------
 Cartesian Forces:  Max     0.036876403 RMS     0.011542272

 GradGradGradGradGradGradGradGradGradGradGradGradGradGradGradGradGradGrad
 Berny optimization.
 Using GEDIIS/GDIIS optimizer.
 FormGI is forming the generalized inverse of G from B-inverse, IUseBI=4.
 Internal  Forces:  Max     0.050327336 RMS     0.011211031
 Search for a local minimum.
 Step number   3 out of a maximum of   46
 All quantities printed in internal units (Hartrees-Bohrs-Radians)
 Mixed Optimization -- RFO/linear search
 Update second derivatives using D2CorX and points    2    3
 ITU=  0  1  0
 Use linear search instead of GDIIS.
     Eigenvalues ---    0.00234   0.01194   0.01653   0.01958   0.01958
     Eigenvalues ---    0.01986   0.09380   0.11782   0.12032   0.13657
     Eigenvalues ---    0.14601   0.15620   0.16000   0.16000   0.16171
     Eigenvalues ---    0.20092   0.21262   0.21542   0.34528   0.34713
     Eigenvalues ---    0.34713   0.44436   0.55348   0.55473   0.55473
     Eigenvalues ---    0.55473   0.57692
 RFO step:  Lambda=-1.37542078D-02 EMin= 2.34301362D-03
 Quartic linear search produced a step of -0.11792.
 Iteration  1 RMS(Cart)=  0.20234701 RMS(Int)=  0.00996611
 Iteration  2 RMS(Cart)=  0.01438479 RMS(Int)=  0.00020747
 Iteration  3 RMS(Cart)=  0.00007558 RMS(Int)=  0.00020051
 Iteration  4 RMS(Cart)=  0.00000001 RMS(Int)=  0.00020051
 Variable       Old X    -DE/DX   Delta X   Delta X   Delta X     New X
                                 (Linear)    (Quad)   (Total)
    R1        2.78898   0.00544   0.03478  -0.00694   0.02784   2.81682
    R2        3.04633   0.00239   0.01455  -0.00112   0.01343   3.05977
    R3        3.03295   0.00704   0.01560   0.01029   0.02589   3.05884
    R4        3.01332  -0.02283   0.01715  -0.06922  -0.05207   2.96125
    R5        1.83155  -0.00404  -0.00137  -0.00621  -0.00758   1.82397
    R6        1.83135  -0.00348  -0.00135  -0.00533  -0.00668   1.82466
    R7        1.99900  -0.05033  -0.01453  -0.08229  -0.09682   1.90218
    R8        3.14274  -0.00296  -0.02431  -0.01275  -0.03707   3.10568
    R9        1.83603  -0.00965  -0.00172  -0.01510  -0.01682   1.81921
   R10        1.81930  -0.00209  -0.00041  -0.00341  -0.00382   1.81548
    A1        1.93942   0.00899  -0.00228   0.05327   0.05061   1.99004
    A2        1.96821   0.00649  -0.00456   0.04292   0.03781   2.00602
    A3        2.07371  -0.00306  -0.01283  -0.01192  -0.02440   2.04931
    A4        1.80554  -0.00408   0.00848  -0.02426  -0.01622   1.78933
    A5        1.84346  -0.00502   0.00554  -0.03386  -0.02816   1.81529
    A6        1.80925  -0.00478   0.00819  -0.03621  -0.02802   1.78123
    A7        1.86386   0.00630   0.00372   0.03039   0.03410   1.89796
    A8        1.86958   0.01009   0.00327   0.05088   0.05414   1.92372
    A9        2.25583  -0.02687  -0.02710  -0.16348  -0.19058   2.06525
   A10        2.76768   0.00380  -0.03337   0.00339  -0.02998   2.73770
   A11        2.04080  -0.00066  -0.00465  -0.00889  -0.01355   2.02725
   A12        2.31298   0.00156   0.00077   0.01047   0.01119   2.32417
   A13        1.89217  -0.00115   0.00154  -0.00624  -0.00470   1.88747
    D1       -0.64109  -0.00292  -0.00365   0.00102  -0.00308  -0.64417
    D2        1.47538   0.00699  -0.00526   0.06496   0.05996   1.53533
    D3       -2.91229  -0.00151   0.01013   0.00448   0.01479  -2.89749
    D4       -1.03615   0.00572   0.00387   0.05166   0.05596  -0.98019
    D5       -3.13308  -0.00593   0.00387  -0.01961  -0.01605   3.13406
    D6        1.22911   0.00257  -0.00942   0.03796   0.02842   1.25753
    D7       -0.93541  -0.00018  -0.00420   0.03995   0.03587  -0.89954
    D8        1.25516   0.00538  -0.01167   0.07389   0.06216   1.31732
    D9       -3.13517  -0.00264   0.00393   0.02186   0.02573  -3.10943
   D10        0.81431   0.00052  -0.03568   0.07624   0.04056   0.85487
   D11       -0.17315  -0.00022  -0.01555   0.05933   0.04368  -0.12947
   D12       -2.98638   0.00111  -0.00671   0.08109   0.07448  -2.91190
   D13       -2.88840   0.00055   0.00662   0.01350   0.01998  -2.86842
         Item               Value     Threshold  Converged?
 Maximum Force            0.050327     0.000450     NO 
 RMS     Force            0.011211     0.000300     NO 
 Maximum Displacement     0.572423     0.001800     NO 
 RMS     Displacement     0.205718     0.001200     NO 
 Predicted change in Energy=-8.056912D-03
 GradGradGradGradGradGradGradGradGradGradGradGradGradGradGradGradGradGrad

                          Input orientation:                          
 ---------------------------------------------------------------------
 Center     Atomic      Atomic             Coordinates (Angstroms)
 Number     Number       Type             X           Y           Z
 ---------------------------------------------------------------------
      1         15           0       -0.699624   -0.817541   -1.094716
      2          8           0        0.054014   -0.159023   -2.199370
      3          8           0       -0.242077   -0.349045    0.386108
      4          1           0        0.713811   -0.215289    0.387591
      5          8           0       -0.534955   -2.426098   -1.020388
      6          1           0       -0.790188   -2.826911   -1.860941
      7          8           0       -2.257295   -0.647040   -1.082131
      8          1           0       -2.636601    0.282887   -1.149851
      9          8           0       -2.821630    1.799040   -1.756466
     10          1           0       -2.194329    2.063145   -2.437281
     11          1           0       -3.256880    2.589877   -1.427682
 ---------------------------------------------------------------------
                    Distance matrix (angstroms):
                    1          2          3          4          5
     1  P    0.000000
     2  O    1.490597   0.000000
     3  O    1.619159   2.609305   0.000000
     4  H    2.134886   2.670368   0.965201   0.000000
     5  O    1.618671   2.622311   2.525501   2.903359   0.000000
     6  H    2.152410   2.818659   3.389612   3.760116   0.965569
     7  O    1.567025   2.613147   2.511102   3.342747   2.476957
     8  H    2.228421   2.921675   2.914147   3.719834   3.431075
     9  O    3.433267   3.507065   3.982335   4.599331   4.860297
    10  H    3.512119   3.170123   4.195411   4.650639   4.991434
    11  H    4.273280   4.371953   4.584336   5.189466   5.721431
                    6          7          8          9         10
     6  H    0.000000
     7  O    2.740581   0.000000
     8  H    3.685882   1.006590   0.000000
     9  O    5.053424   2.599329   1.643454   0.000000
    10  H    5.120198   3.030759   2.241071   0.962687   0.000000
    11  H    5.967736   3.405321   2.405024   0.960711   1.557483
                   11
    11  H    0.000000
 Stoichiometry    H5O5P
 Framework group  C1[X(H5O5P)]
 Deg. of freedom    27
 Full point group                 C1      NOp   1
 Largest Abelian subgroup         C1      NOp   1
 Largest concise Abelian subgroup C1      NOp   1
                         Standard orientation:                         
 ---------------------------------------------------------------------
 Center     Atomic      Atomic             Coordinates (Angstroms)
 Number     Number       Type             X           Y           Z
 ---------------------------------------------------------------------
      1         15           0       -0.553151    0.016765    0.097651
      2          8           0       -0.245227    0.313102    1.525673
      3          8           0       -0.764693    1.335087   -0.818293
      4          1           0       -1.218805    2.006900   -0.294783
      5          8           0       -1.925717   -0.805265   -0.148163
      6          1           0       -1.913973   -1.631453    0.351436
      7          8           0        0.488153   -0.838076   -0.702662
      8          1           0        1.452891   -0.551156   -0.689195
      9          8           0        2.876843   -0.068451   -0.025648
     10          1           0        2.860369    0.130116    0.916193
     11          1           0        3.681902    0.302946   -0.395663
 ---------------------------------------------------------------------
 Rotational constants (GHZ):      4.3156243      1.6735867      1.6640872
 Standard basis: 6-311G(d,p) (5D, 7F)
 There are   152 symmetry adapted cartesian basis functions of A   symmetry.
 There are   146 symmetry adapted basis functions of A   symmetry.
   146 basis functions,   246 primitive gaussians,   152 cartesian basis functions
    30 alpha electrons       30 beta electrons
       nuclear repulsion energy       361.6887701472 Hartrees.
 NAtoms=   11 NActive=   11 NUniq=   11 SFac= 1.00D+00 NAtFMM=   60 NAOKFM=F Big=F
 Integral buffers will be    131072 words long.
 Raffenetti 2 integral format.
 Two-electron integral symmetry is turned on.
 One-electron integrals computed using PRISM.
 NBasis=   146 RedAO= T EigKep=  8.88D-03  NBF=   146
 NBsUse=   146 1.00D-06 EigRej= -1.00D+00 NBFU=   146
 Initial guess from the checkpoint file:  "H3PO42-h2o.chk"
 B after Tr=     0.000000    0.000000    0.000000
         Rot=    0.997274   -0.067785   -0.020965    0.020240 Ang=  -8.46 deg.
 ExpMin= 6.85D-02 ExpMax= 7.75D+04 ExpMxC= 2.65D+03 IAcc=2 IRadAn=         4 AccDes= 0.00D+00
 Harris functional with IExCor=  402 and IRadAn=       4 diagonalized for initial guess.
 HarFok:  IExCor=  402 AccDes= 0.00D+00 IRadAn=         4 IDoV= 1 UseB2=F ITyADJ=14
 ICtDFT=  3500011 ScaDFX=  1.000000  1.000000  1.000000  1.000000
 FoFCou: FMM=F IPFlag=           0 FMFlag=      100000 FMFlg1=           0
         NFxFlg=           0 DoJE=T BraDBF=F KetDBF=T FulRan=T
         wScrn=  0.000000 ICntrl=     500 IOpCl=  0 I1Cent=   200000004 NGrid=           0
         NMat0=    1 NMatS0=      1 NMatT0=    0 NMatD0=    1 NMtDS0=    0 NMtDT0=    0
 Petite list used in FoFCou.
 Keep R1 ints in memory in canonical form, NReq=59463473.
 Requested convergence on RMS density matrix=1.00D-08 within 128 cycles.
 Requested convergence on MAX density matrix=1.00D-06.
 Requested convergence on             energy=1.00D-06.
 No special actions if energy rises.
 Integral accuracy reduced to 1.0D-05 until final iterations.
 Initial convergence to 1.0D-05 achieved.  Increase integral accuracy.
 SCF Done:  E(RB3LYP) =  -720.734375023     A.U. after   12 cycles
            NFock= 12  Conv=0.68D-08     -V/T= 2.0020
 Calling FoFJK, ICntrl=      2127 FMM=F ISym2X=0 I1Cent= 0 IOpClX= 0 NMat=1 NMatS=1 NMatT=0.
 ***** Axes restored to original set *****
 -------------------------------------------------------------------
 Center     Atomic                   Forces (Hartrees/Bohr)
 Number     Number              X              Y              Z
 -------------------------------------------------------------------
      1       15           0.012864907    0.005356163   -0.008590378
      2        8          -0.007111543   -0.004412992    0.009812152
      3        8           0.001145143   -0.004571302   -0.005674444
      4        1          -0.000400792    0.001317341    0.002176659
      5        8          -0.001331558    0.004870943   -0.000614221
      6        1           0.001726368   -0.000659082    0.001380184
      7        8          -0.018696667    0.009492780    0.005464802
      8        1           0.013111632   -0.014101155   -0.004532200
      9        8          -0.003576628    0.002441705    0.000313749
     10        1           0.000971296   -0.000596752    0.000664407
     11        1           0.001297842    0.000862350   -0.000400709
 -------------------------------------------------------------------
 Cartesian Forces:  Max     0.018696667 RMS     0.006537945

 GradGradGradGradGradGradGradGradGradGradGradGradGradGradGradGradGradGrad
 Berny optimization.
 Using GEDIIS/GDIIS optimizer.
 FormGI is forming the generalized inverse of G from B-inverse, IUseBI=4.
 Internal  Forces:  Max     0.014708093 RMS     0.004554404
 Search for a local minimum.
 Step number   4 out of a maximum of   46
 All quantities printed in internal units (Hartrees-Bohrs-Radians)
 Mixed Optimization -- RFO/linear search
 Update second derivatives using D2CorX and points    3    4
 DE= -9.61D-03 DEPred=-8.06D-03 R= 1.19D+00
 TightC=F SS=  1.41D+00  RLast= 2.95D-01 DXNew= 8.4853D-01 8.8431D-01
 Trust test= 1.19D+00 RLast= 2.95D-01 DXMaxT set to 8.49D-01
 ITU=  1  0  1  0
 Use linear search instead of GDIIS.
     Eigenvalues ---    0.00238   0.01225   0.01666   0.01932   0.01958
     Eigenvalues ---    0.01970   0.08227   0.11296   0.12109   0.12907
     Eigenvalues ---    0.14020   0.15558   0.15979   0.16009   0.16177
     Eigenvalues ---    0.19672   0.21033   0.21232   0.34640   0.34703
     Eigenvalues ---    0.38948   0.42618   0.54707   0.55472   0.55473
     Eigenvalues ---    0.55486   0.59696
 RFO step:  Lambda=-3.73804988D-03 EMin= 2.38252938D-03
 Quartic linear search produced a step of  0.28596.
 Iteration  1 RMS(Cart)=  0.16741689 RMS(Int)=  0.00802979
 Iteration  2 RMS(Cart)=  0.01265018 RMS(Int)=  0.00042846
 Iteration  3 RMS(Cart)=  0.00006291 RMS(Int)=  0.00042698
 Iteration  4 RMS(Cart)=  0.00000001 RMS(Int)=  0.00042698
 Variable       Old X    -DE/DX   Delta X   Delta X   Delta X     New X
                                 (Linear)    (Quad)   (Total)
    R1        2.81682  -0.01281   0.00796  -0.03733  -0.02936   2.78746
    R2        3.05977  -0.00393   0.00384  -0.01047  -0.00663   3.05314
    R3        3.05884  -0.00411   0.00740  -0.01144  -0.00404   3.05481
    R4        2.96125   0.00667  -0.01489   0.03240   0.01751   2.97875
    R5        1.82397  -0.00021  -0.00217  -0.00060  -0.00277   1.82120
    R6        1.82466  -0.00138  -0.00191  -0.00332  -0.00523   1.81943
    R7        1.90218  -0.01471  -0.02769  -0.03446  -0.06214   1.84003
    R8        3.10568   0.00242  -0.01060   0.02289   0.01229   3.11796
    R9        1.81921  -0.00001  -0.00481   0.00013  -0.00468   1.81454
   R10        1.81548  -0.00001  -0.00109   0.00000  -0.00110   1.81438
    A1        1.99004   0.00072   0.01447  -0.00576   0.00864   1.99868
    A2        2.00602   0.00131   0.01081   0.00526   0.01595   2.02198
    A3        2.04931  -0.00163  -0.00698  -0.00837  -0.01535   2.03396
    A4        1.78933  -0.00386  -0.00464  -0.02196  -0.02677   1.76255
    A5        1.81529   0.00032  -0.00805   0.00491  -0.00316   1.81214
    A6        1.78123   0.00294  -0.00801   0.02672   0.01854   1.79977
    A7        1.89796   0.00447   0.00975   0.03315   0.04290   1.94086
    A8        1.92372   0.00266   0.01548   0.01712   0.03261   1.95633
    A9        2.06525  -0.01393  -0.05450  -0.10168  -0.15617   1.90908
   A10        2.73770   0.00174  -0.00857  -0.00042  -0.00899   2.72870
   A11        2.02725  -0.00205  -0.00387  -0.02317  -0.02822   1.99902
   A12        2.32417   0.00197   0.00320   0.00903   0.01072   2.33489
   A13        1.88747  -0.00030  -0.00134  -0.00863  -0.01111   1.87637
    D1       -0.64417   0.00019  -0.00088   0.01276   0.01172  -0.63245
    D2        1.53533  -0.00046   0.01715   0.00060   0.01772   1.55305
    D3       -2.89749   0.00155   0.00423   0.02368   0.02810  -2.86940
    D4       -0.98019  -0.00005   0.01600   0.01349   0.02944  -0.95075
    D5        3.13406   0.00104  -0.00459   0.03328   0.02866  -3.12047
    D6        1.25753   0.00094   0.00813   0.02648   0.03469   1.29222
    D7       -0.89954   0.00248   0.01026   0.07341   0.08359  -0.81595
    D8        1.31732   0.00257   0.01777   0.06399   0.08174   1.39906
    D9       -3.10943  -0.00053   0.00736   0.05052   0.05798  -3.05145
   D10        0.85487  -0.00101   0.01160  -0.09966  -0.08806   0.76681
   D11       -0.12947  -0.00078   0.01249  -0.13552  -0.12342  -0.25289
   D12       -2.91190   0.00094   0.02130  -0.04292  -0.02123  -2.93313
   D13       -2.86842   0.00074   0.00571   0.06594   0.07058  -2.79784
         Item               Value     Threshold  Converged?
 Maximum Force            0.014708     0.000450     NO 
 RMS     Force            0.004554     0.000300     NO 
 Maximum Displacement     0.461909     0.001800     NO 
 RMS     Displacement     0.171060     0.001200     NO 
 Predicted change in Energy=-2.737831D-03
 GradGradGradGradGradGradGradGradGradGradGradGradGradGradGradGradGradGrad

                          Input orientation:                          
 ---------------------------------------------------------------------
 Center     Atomic      Atomic             Coordinates (Angstroms)
 Number     Number       Type             X           Y           Z
 ---------------------------------------------------------------------
      1         15           0       -0.800701   -0.777081   -1.109321
      2          8           0       -0.190417   -0.030347   -2.225447
      3          8           0       -0.290818   -0.327397    0.356328
      4          1           0        0.644056   -0.093656    0.343616
      5          8           0       -0.491384   -2.363255   -1.069878
      6          1           0       -0.724763   -2.798314   -1.896462
      7          8           0       -2.371782   -0.716030   -0.996785
      8          1           0       -2.667119    0.206670   -1.094257
      9          8           0       -2.707483    1.719045   -1.752625
     10          1           0       -1.969206    1.921423   -2.332276
     11          1           0       -3.096138    2.552944   -1.478017
 ---------------------------------------------------------------------
                    Distance matrix (angstroms):
                    1          2          3          4          5
     1  P    0.000000
     2  O    1.475058   0.000000
     3  O    1.615650   2.600747   0.000000
     4  H    2.159958   2.701933   0.963735   0.000000
     5  O    1.616534   2.620760   2.493794   2.904870   0.000000
     6  H    2.170425   2.838204   3.371766   3.769190   0.962800
     7  O    1.576289   2.595790   2.512442   3.358467   2.500917
     8  H    2.109859   2.733097   2.834825   3.622368   3.367333
     9  O    3.206291   3.101541   3.804718   4.348899   4.694934
    10  H    3.184799   2.642897   3.886228   4.248538   4.704898
    11  H    4.061285   3.959199   4.419390   4.930709   5.578560
                    6          7          8          9         10
     6  H    0.000000
     7  O    2.803212   0.000000
     8  H    3.666908   0.973705   0.000000
     9  O    4.935423   2.571688   1.649956   0.000000
    10  H    4.900458   2.983582   2.227139   0.960212   0.000000
    11  H    5.868091   3.382672   2.415850   0.960131   1.548727
                   11
    11  H    0.000000
 Stoichiometry    H5O5P
 Framework group  C1[X(H5O5P)]
 Deg. of freedom    27
 Full point group                 C1      NOp   1
 Largest Abelian subgroup         C1      NOp   1
 Largest concise Abelian subgroup C1      NOp   1
                         Standard orientation:                         
 ---------------------------------------------------------------------
 Center     Atomic      Atomic             Coordinates (Angstroms)
 Number     Number       Type             X           Y           Z
 ---------------------------------------------------------------------
      1         15           0       -0.502212    0.004104    0.096730
      2          8           0        0.000608    0.210902    1.467935
      3          8           0       -0.749815    1.364567   -0.738828
      4          1           0       -1.081631    2.067796   -0.169484
      5          8           0       -1.952566   -0.699593   -0.023538
      6          1           0       -1.988332   -1.538214    0.448076
      7          8           0        0.398455   -0.866847   -0.859789
      8          1           0        1.322956   -0.568532   -0.793414
      9          8           0        2.700549   -0.074402   -0.031556
     10          1           0        2.578233    0.185235    0.884759
     11          1           0        3.524100    0.315129   -0.334675
 ---------------------------------------------------------------------
 Rotational constants (GHZ):      4.4073120      1.8069191      1.7994429
 Standard basis: 6-311G(d,p) (5D, 7F)
 There are   152 symmetry adapted cartesian basis functions of A   symmetry.
 There are   146 symmetry adapted basis functions of A   symmetry.
   146 basis functions,   246 primitive gaussians,   152 cartesian basis functions
    30 alpha electrons       30 beta electrons
       nuclear repulsion energy       366.9666183425 Hartrees.
 NAtoms=   11 NActive=   11 NUniq=   11 SFac= 1.00D+00 NAtFMM=   60 NAOKFM=F Big=F
 Integral buffers will be    131072 words long.
 Raffenetti 2 integral format.
 Two-electron integral symmetry is turned on.
 One-electron integrals computed using PRISM.
 NBasis=   146 RedAO= T EigKep=  8.55D-03  NBF=   146
 NBsUse=   146 1.00D-06 EigRej= -1.00D+00 NBFU=   146
 Initial guess from the checkpoint file:  "H3PO42-h2o.chk"
 B after Tr=     0.000000    0.000000    0.000000
         Rot=    0.999505   -0.019921   -0.021219    0.011908 Ang=  -3.60 deg.
 ExpMin= 6.85D-02 ExpMax= 7.75D+04 ExpMxC= 2.65D+03 IAcc=2 IRadAn=         4 AccDes= 0.00D+00
 Harris functional with IExCor=  402 and IRadAn=       4 diagonalized for initial guess.
 HarFok:  IExCor=  402 AccDes= 0.00D+00 IRadAn=         4 IDoV= 1 UseB2=F ITyADJ=14
 ICtDFT=  3500011 ScaDFX=  1.000000  1.000000  1.000000  1.000000
 FoFCou: FMM=F IPFlag=           0 FMFlag=      100000 FMFlg1=           0
         NFxFlg=           0 DoJE=T BraDBF=F KetDBF=T FulRan=T
         wScrn=  0.000000 ICntrl=     500 IOpCl=  0 I1Cent=   200000004 NGrid=           0
         NMat0=    1 NMatS0=      1 NMatT0=    0 NMatD0=    1 NMtDS0=    0 NMtDT0=    0
 Petite list used in FoFCou.
 Keep R1 ints in memory in canonical form, NReq=59463473.
 Requested convergence on RMS density matrix=1.00D-08 within 128 cycles.
 Requested convergence on MAX density matrix=1.00D-06.
 Requested convergence on             energy=1.00D-06.
 No special actions if energy rises.
 Integral accuracy reduced to 1.0D-05 until final iterations.
 Initial convergence to 1.0D-05 achieved.  Increase integral accuracy.
 SCF Done:  E(RB3LYP) =  -720.737058935     A.U. after   12 cycles
            NFock= 12  Conv=0.45D-08     -V/T= 2.0018
 Calling FoFJK, ICntrl=      2127 FMM=F ISym2X=0 I1Cent= 0 IOpClX= 0 NMat=1 NMatS=1 NMatT=0.
 ***** Axes restored to original set *****
 -------------------------------------------------------------------
 Center     Atomic                   Forces (Hartrees/Bohr)
 Number     Number              X              Y              Z
 -------------------------------------------------------------------
      1       15           0.005546140   -0.009074873    0.007814250
      2        8           0.002154781    0.004531458   -0.004855109
      3        8          -0.000936941   -0.001262835   -0.002747013
      4        1           0.000095425    0.000274083   -0.000021540
      5        8          -0.001574982    0.004813610   -0.000114495
      6        1           0.000495867   -0.000295727   -0.001202442
      7        8           0.000827939   -0.012455417    0.007462464
      8        1          -0.005766739    0.008577338   -0.005580968
      9        8          -0.005869401    0.006157836    0.000816125
     10        1           0.004694214   -0.002173200   -0.002042015
     11        1           0.000333697    0.000907725    0.000470743
 -------------------------------------------------------------------
 Cartesian Forces:  Max     0.012455417 RMS     0.004654995

 GradGradGradGradGradGradGradGradGradGradGradGradGradGradGradGradGradGrad
 Berny optimization.
 Using GEDIIS/GDIIS optimizer.
 FormGI is forming the generalized inverse of G from B-inverse, IUseBI=4.
 Internal  Forces:  Max     0.015407373 RMS     0.003538184
 Search for a local minimum.
 Step number   5 out of a maximum of   46
 All quantities printed in internal units (Hartrees-Bohrs-Radians)
 Mixed Optimization -- RFO/linear search
 Update second derivatives using D2CorX and points    3    4    5
 DE= -2.68D-03 DEPred=-2.74D-03 R= 9.80D-01
 TightC=F SS=  1.41D+00  RLast= 2.91D-01 DXNew= 1.4270D+00 8.7426D-01
 Trust test= 9.80D-01 RLast= 2.91D-01 DXMaxT set to 8.74D-01
 ITU=  1  1  0  1  0
 Use linear search instead of GDIIS.
     Eigenvalues ---    0.00242   0.01297   0.01529   0.01821   0.01958
     Eigenvalues ---    0.01972   0.08029   0.10577   0.12082   0.13235
     Eigenvalues ---    0.14476   0.15310   0.15998   0.16167   0.16870
     Eigenvalues ---    0.19974   0.21010   0.21301   0.34687   0.35330
     Eigenvalues ---    0.39170   0.49206   0.55270   0.55473   0.55484
     Eigenvalues ---    0.55700   0.72586
 RFO step:  Lambda=-1.95917849D-03 EMin= 2.41975857D-03
 Quartic linear search produced a step of  0.00015.
 Iteration  1 RMS(Cart)=  0.12461322 RMS(Int)=  0.00539149
 Iteration  2 RMS(Cart)=  0.00833170 RMS(Int)=  0.00033365
 Iteration  3 RMS(Cart)=  0.00003003 RMS(Int)=  0.00033306
 Iteration  4 RMS(Cart)=  0.00000000 RMS(Int)=  0.00033306
 Variable       Old X    -DE/DX   Delta X   Delta X   Delta X     New X
                                 (Linear)    (Quad)   (Total)
    R1        2.78746   0.00686   0.00000   0.02571   0.02571   2.81316
    R2        3.05314  -0.00306   0.00000  -0.00361  -0.00361   3.04952
    R3        3.05481  -0.00468   0.00000  -0.00580  -0.00580   3.04901
    R4        2.97875   0.00589   0.00000   0.01921   0.01921   2.99796
    R5        1.82120   0.00016   0.00000  -0.00149  -0.00149   1.81971
    R6        1.81943   0.00106   0.00000  -0.00040  -0.00040   1.81903
    R7        1.84003   0.01541  -0.00001  -0.00137  -0.00138   1.83866
    R8        3.11796   0.00480   0.00000   0.02951   0.02952   3.14748
    R9        1.81454   0.00438   0.00000   0.00412   0.00412   1.81866
   R10        1.81438   0.00079   0.00000   0.00059   0.00059   1.81497
    A1        1.99868  -0.00017   0.00000   0.00500   0.00495   2.00362
    A2        2.02198  -0.00002   0.00000   0.00637   0.00637   2.02835
    A3        2.03396  -0.00111   0.00000  -0.01705  -0.01706   2.01690
    A4        1.76255   0.00082   0.00000   0.00174   0.00172   1.76427
    A5        1.81214   0.00011   0.00000  -0.00142  -0.00144   1.81069
    A6        1.79977   0.00066   0.00000   0.00720   0.00721   1.80698
    A7        1.94086   0.00005   0.00001   0.01356   0.01356   1.95443
    A8        1.95633  -0.00009   0.00001   0.01261   0.01262   1.96895
    A9        1.90908  -0.00090  -0.00002  -0.06576  -0.06578   1.84330
   A10        2.72870  -0.00189   0.00000  -0.02298  -0.02298   2.70572
   A11        1.99902  -0.00443   0.00000  -0.04029  -0.04124   1.95778
   A12        2.33489   0.00209   0.00000   0.01022   0.00899   2.34388
   A13        1.87637   0.00182   0.00000   0.00143   0.00050   1.87686
    D1       -0.63245  -0.00050   0.00000   0.00217   0.00214  -0.63031
    D2        1.55305  -0.00005   0.00000   0.01404   0.01405   1.56710
    D3       -2.86940   0.00095   0.00000   0.02187   0.02189  -2.84751
    D4       -0.95075   0.00090   0.00000   0.03664   0.03665  -0.91410
    D5       -3.12047   0.00053   0.00000   0.02555   0.02555  -3.09492
    D6        1.29222  -0.00002   0.00001   0.02455   0.02455   1.31677
    D7       -0.81595   0.00260   0.00001   0.12477   0.12473  -0.69121
    D8        1.39906   0.00171   0.00001   0.11853   0.11858   1.51764
    D9       -3.05145   0.00284   0.00001   0.12225   0.12227  -2.92918
   D10        0.76681  -0.00070  -0.00001  -0.05416  -0.05417   0.71264
   D11       -0.25289  -0.00031  -0.00002   0.06169   0.06149  -0.19140
   D12       -2.93313   0.00115   0.00000   0.15057   0.15075  -2.78238
   D13       -2.79784   0.00053   0.00001   0.06065   0.05986  -2.73798
         Item               Value     Threshold  Converged?
 Maximum Force            0.015407     0.000450     NO 
 RMS     Force            0.003538     0.000300     NO 
 Maximum Displacement     0.328414     0.001800     NO 
 RMS     Displacement     0.127114     0.001200     NO 
 Predicted change in Energy=-1.065248D-03
 GradGradGradGradGradGradGradGradGradGradGradGradGradGradGradGradGradGrad

                          Input orientation:                          
 ---------------------------------------------------------------------
 Center     Atomic      Atomic             Coordinates (Angstroms)
 Number     Number       Type             X           Y           Z
 ---------------------------------------------------------------------
      1         15           0       -0.842788   -0.744213   -1.068991
      2          8           0       -0.325215    0.106638   -2.175465
      3          8           0       -0.279740   -0.366583    0.395430
      4          1           0        0.640132   -0.083333    0.365882
      5          8           0       -0.477786   -2.313943   -1.146396
      6          1           0       -0.711002   -2.710075   -1.992130
      7          8           0       -2.417967   -0.738223   -0.880283
      8          1           0       -2.695694    0.182777   -1.026267
      9          8           0       -2.674600    1.663302   -1.788986
     10          1           0       -1.934160    1.747633   -2.397948
     11          1           0       -2.946935    2.550022   -1.539973
 ---------------------------------------------------------------------
                    Distance matrix (angstroms):
                    1          2          3          4          5
     1  P    0.000000
     2  O    1.488662   0.000000
     3  O    1.613739   2.614481   0.000000
     4  H    2.166719   2.725147   0.962948   0.000000
     5  O    1.613466   2.634668   2.491718   2.917593   0.000000
     6  H    2.175815   2.848915   3.373186   3.779624   0.962588
     7  O    1.586454   2.602095   2.517454   3.366568   2.513566
     8  H    2.072293   2.635455   2.856545   3.624449   3.341730
     9  O    3.109671   2.844675   3.824586   4.322225   4.588833
    10  H    3.027626   2.308910   3.874271   4.197400   4.492640
    11  H    3.937161   3.639696   4.400716   4.840856   5.468981
                    6          7          8          9         10
     6  H    0.000000
     7  O    2.835161   0.000000
     8  H    3.638748   0.972976   0.000000
     9  O    4.798272   2.580488   1.665575   0.000000
    10  H    4.640255   2.952432   2.215902   0.962392   0.000000
    11  H    5.733451   3.395224   2.435337   0.960441   1.551019
                   11
    11  H    0.000000
 Stoichiometry    H5O5P
 Framework group  C1[X(H5O5P)]
 Deg. of freedom    27
 Full point group                 C1      NOp   1
 Largest Abelian subgroup         C1      NOp   1
 Largest concise Abelian subgroup C1      NOp   1
                         Standard orientation:                         
 ---------------------------------------------------------------------
 Center     Atomic      Atomic             Coordinates (Angstroms)
 Number     Number       Type             X           Y           Z
 ---------------------------------------------------------------------
      1         15           0       -0.480914   -0.000101    0.086786
      2          8           0        0.188057    0.117875    1.411427
      3          8           0       -0.857250    1.406408   -0.609099
      4          1           0       -1.131388    2.066064    0.036635
      5          8           0       -1.912162   -0.744856    0.074919
      6          1           0       -1.887218   -1.608102    0.500078
      7          8           0        0.344784   -0.764858   -1.031341
      8          1           0        1.267483   -0.477739   -0.917888
      9          8           0        2.625237   -0.070048   -0.043570
     10          1           0        2.436706    0.028879    0.894976
     11          1           0        3.418799    0.436250   -0.234274
 ---------------------------------------------------------------------
 Rotational constants (GHZ):      4.4096446      1.8641695      1.8585419
 Standard basis: 6-311G(d,p) (5D, 7F)
 There are   152 symmetry adapted cartesian basis functions of A   symmetry.
 There are   146 symmetry adapted basis functions of A   symmetry.
   146 basis functions,   246 primitive gaussians,   152 cartesian basis functions
    30 alpha electrons       30 beta electrons
       nuclear repulsion energy       368.5250394062 Hartrees.
 NAtoms=   11 NActive=   11 NUniq=   11 SFac= 1.00D+00 NAtFMM=   60 NAOKFM=F Big=F
 Integral buffers will be    131072 words long.
 Raffenetti 2 integral format.
 Two-electron integral symmetry is turned on.
 One-electron integrals computed using PRISM.
 NBasis=   146 RedAO= T EigKep=  8.60D-03  NBF=   146
 NBsUse=   146 1.00D-06 EigRej= -1.00D+00 NBFU=   146
 Initial guess from the checkpoint file:  "H3PO42-h2o.chk"
 B after Tr=     0.000000    0.000000    0.000000
         Rot=    0.999009   -0.038469   -0.021278   -0.006973 Ang=  -5.10 deg.
 ExpMin= 6.85D-02 ExpMax= 7.75D+04 ExpMxC= 2.65D+03 IAcc=2 IRadAn=         4 AccDes= 0.00D+00
 Harris functional with IExCor=  402 and IRadAn=       4 diagonalized for initial guess.
 HarFok:  IExCor=  402 AccDes= 0.00D+00 IRadAn=         4 IDoV= 1 UseB2=F ITyADJ=14
 ICtDFT=  3500011 ScaDFX=  1.000000  1.000000  1.000000  1.000000
 FoFCou: FMM=F IPFlag=           0 FMFlag=      100000 FMFlg1=           0
         NFxFlg=           0 DoJE=T BraDBF=F KetDBF=T FulRan=T
[...]
       -------------------------------
            Total unit  2    9.96735  (100.0000%)
           Charge unit  2    0.03265
 1\1\GINC-CADMIO\SP\RB3LYP\6-311G(d,p)\H5O5P1\SARARIOP\20-Jun-2017\0\\#
  B3LYP/6-311G** geom=check guess=read pop=nboread\\Title Card Required
 \\0,1\P,0,-0.8563707796,-0.6520821428,-0.9620311274\O,0,-0.4274325541,
 0.2578781161,-2.0573380489\O,0,-0.1623592929,-0.4198151631,0.463349288
 8\H,0,0.8000277753,-0.4015032221,0.4114401919\O,0,-0.5236296988,-2.202
 9983751,-1.2253888936\H,0,-0.6680268844,-2.4524267285,-2.1454563951\O,
 0,-2.3963403678,-0.5850102491,-0.6111650325\H,0,-2.799162411,0.2231575
 255,-1.025219117\O,0,-2.8528766337,1.605923718,-2.06370996\H,0,-1.9425
 989843,1.4397020376,-2.3751374012\H,0,-2.8369850087,2.4811766734,-1.66
 44688749\\Version=AM64L-G09RevD.01\State=1-A\HF=-720.743161\RMSD=3.344
 e-09\Dipole=0.4843007,0.3395692,-0.1261907\Quadrupole=-0.5147541,3.894
 0835,-3.3793293,-2.5259135,2.0311997,4.1685649\PG=C01 [X(H5O5P1)]\\@


 I WANT TO KNOW HOW GOD CREATED THE WORLD.  I AM NOT INTERESTED IN
 THIS OR THAT PHENOMENON, IN THE SPECTRUM OF THIS OR THAT ELEMENT.
 I WANT TO KNOW HIS THOUGHTS, THE REST ARE DETAILS.
     -- ALBERT EINSTEIN
 Job cpu time:       0 days  0 hours  1 minutes 20.3 seconds.
 File lengths (MBytes):  RWF=     10 Int=      0 D2E=      0 Chk=      4 Scr=      1
 Normal termination of Gaussian 09 at Tue Jun 20 23:38:24 2017.
 Initial command:
 /usr/local/gaussian/gaussian09.d1/g09/l1.exe "/scratch/sarariop/H3PO42-h2o.com/Gau-12364.inp" -scrdir="/scratch/sarariop/H3PO42-h2o.com/"
 Default is to use a total of   8 processors:
                                8 via shared-memory
                                1 via Linda
 Entering Link 1 = /usr/local/gaussian/gaussian09.d1/g09/l1.exe PID=     14797.
  
 Copyright (c) 1988,1990,1992,1993,1995,1998,2003,2009,2013,
            Gaussian, Inc.  All Rights Reserved.
  
 This is part of the Gaussian(R) 09 program.  It is based on
 the Gaussian(R) 03 system (copyright 2003, Gaussian, Inc.),
 the Gaussian(R) 98 system (copyright 1998, Gaussian, Inc.),
 the Gaussian(R) 94 system (copyright 1995, Gaussian, Inc.),
 the Gaussian 92(TM) system (copyright 1992, Gaussian, Inc.),
 the Gaussian 90(TM) system (copyright 1990, Gaussian, Inc.),
 the Gaussian 88(TM) system (copyright 1988, Gaussian, Inc.),
 the Gaussian 86(TM) system (copyright 1986, Carnegie Mellon
 University), and the Gaussian 82(TM) system (copyright 1983,
 Carnegie Mellon University). Gaussian is a federally registered
 trademark of Gaussian, Inc.
  
 This software contains proprietary and confidential information,
 including trade secrets, belonging to Gaussian, Inc.
  
 This software is provided under written license and may be
 used, copied, transmitted, or stored only in accord with that
 written license.
  
 The following legend is applicable only to US Government
 contracts under FAR:
  
                    RESTRICTED RIGHTS LEGEND
  
 Use, reproduction and disclosure by the US Government is
 subject to restrictions as set forth in subparagraphs (a)
 and (c) of the Commercial Computer Software - Restricted
 Rights clause in FAR 52.227-19.
  
 Gaussian, Inc.
 340 Quinnipiac St., Bldg. 40, Wallingford CT 06492
  
  
 ---------------------------------------------------------------
 Warning -- This program may not be used in any manner that
 competes with the business of Gaussian, Inc. or will provide
 assistance to any competitor of Gaussian, Inc.  The licensee
 of this program is prohibited from giving any competitor of
 Gaussian, Inc. access to this program.  By using this program,
 the user acknowledges that Gaussian, Inc. is engaged in the
 business of creating and licensing software in the field of
 computational chemistry and represents and warrants to the
 licensee that it is not a competitor of Gaussian, Inc. and that
 it will not use this program in any manner prohibited above.
 ---------------------------------------------------------------
  

 Cite this work as:
 Gaussian 09, Revision D.01,
 M. J. Frisch, G. W. Trucks, H. B. Schlegel, G. E. Scuseria, 
 M. A. Robb, J. R. Cheeseman, G. Scalmani, V. Barone, B. Mennucci, 
 G. A. Petersson, H. Nakatsuji, M. Caricato, X. Li, H. P. Hratchian, 
 A. F. Izmaylov, J. Bloino, G. Zheng, J. L. Sonnenberg, M. Hada, 
 M. Ehara, K. Toyota, R. Fukuda, J. Hasegawa, M. Ishida, T. Nakajima, 
 Y. Honda, O. Kitao, H. Nakai, T. Vreven, J. A. Montgomery, Jr., 
 J. E. Peralta, F. Ogliaro, M. Bearpark, J. J. Heyd, E. Brothers, 
 K. N. Kudin, V. N. Staroverov, T. Keith, R. Kobayashi, J. Normand, 
 K. Raghavachari, A. Rendell, J. C. Burant, S. S. Iyengar, J. Tomasi, 
 M. Cossi, N. Rega, J. M. Millam, M. Klene, J. E. Knox, J. B. Cross, 
 V. Bakken, C. Adamo, J. Jaramillo, R. Gomperts, R. E. Stratmann, 
 O. Yazyev, A. J. Austin, R. Cammi, C. Pomelli, J. W. Ochterski, 
 R. L. Martin, K. Morokuma, V. G. Zakrzewski, G. A. Voth, 
 P. Salvador, J. J. Dannenberg, S. Dapprich, A. D. Daniels, 
 O. Farkas, J. B. Foresman, J. V. Ortiz, J. Cioslowski, 
 and D. J. Fox, Gaussian, Inc., Wallingford CT, 2013.
 
 ******************************************
 Gaussian 09:  AM64L-G09RevD.01 24-Apr-2013
                20-Jun-2017 
 ******************************************
 %chk=H3PO42-h2o.chk
 Default route:  MaxDisk=56GB
 -------------------------------------------------
 # B3LYP/6-311G** geom=check guess=read output=wfx
 -------------------------------------------------
 1/29=2,38=1/1;
 2/12=2,40=1/2;
 3/5=4,6=6,7=101,11=2,14=-4,16=1,25=1,30=1,74=-5,116=-2/1,2,3;
 4/5=1/1;
 5/5=2,38=6/2;
 6/7=2,8=2,9=2,10=2,28=1/1;
 99/5=1,6=200,9=1/99;
 -------------------
 Title Card Required
 -------------------
 Structure from the checkpoint file:  "H3PO42-h2o.chk"
 Charge =  0 Multiplicity = 1
 Redundant internal coordinates found in file.
 P,0,-0.8563707796,-0.6520821428,-0.9620311274
 O,0,-0.4274325541,0.2578781161,-2.0573380489
 O,0,-0.1623592929,-0.4198151631,0.4633492888
 H,0,0.8000277753,-0.4015032221,0.4114401919
 O,0,-0.5236296988,-2.2029983751,-1.2253888936
 H,0,-0.6680268844,-2.4524267285,-2.1454563951
 O,0,-2.3963403678,-0.5850102491,-0.6111650325
 H,0,-2.799162411,0.2231575255,-1.025219117
 O,0,-2.8528766337,1.605923718,-2.06370996
 H,0,-1.9425989843,1.4397020376,-2.3751374012
 H,0,-2.8369850087,2.4811766734,-1.6644688749
 Recover connectivity data from disk.
                          Input orientation:                          
 ---------------------------------------------------------------------
 Center     Atomic      Atomic             Coordinates (Angstroms)
 Number     Number       Type             X           Y           Z
 ---------------------------------------------------------------------
      1         15           0       -0.856371   -0.652082   -0.962031
      2          8           0       -0.427433    0.257878   -2.057338
      3          8           0       -0.162359   -0.419815    0.463349
      4          1           0        0.800028   -0.401503    0.411440
      5          8           0       -0.523630   -2.202998   -1.225389
      6          1           0       -0.668027   -2.452427   -2.145456
      7          8           0       -2.396340   -0.585010   -0.611165
      8          1           0       -2.799162    0.223158   -1.025219
      9          8           0       -2.852877    1.605924   -2.063710
     10          1           0       -1.942599    1.439702   -2.375137
     11          1           0       -2.836985    2.481177   -1.664469
 ---------------------------------------------------------------------
                    Distance matrix (angstroms):
                    1          2          3          4          5
     1  P    0.000000
     2  O    1.487183   0.000000
     3  O    1.602283   2.623623   0.000000
     4  H    2.166303   2.834838   0.963960   0.000000
     5  O    1.607923   2.599482   2.482357   2.770679   0.000000
     6  H    2.162686   2.722389   3.345606   3.591544   0.964152
     7  O    1.580858   2.584275   2.484460   3.360977   2.549942
     8  H    2.131778   2.586808   3.095477   3.925349   3.332319
     9  O    3.209100   2.774896   4.210526   4.847664   4.542693
    10  H    2.748149   1.947674   3.831979   4.321696   4.074882
    11  H    3.772739   3.302021   4.482966   5.084005   5.242700
                    6          7          8          9         10
     6  H    0.000000
     7  O    2.971256   0.000000
     8  H    3.599364   0.993399   0.000000
     9  O    4.609822   2.668052   1.730142   0.000000
    10  H    4.101945   2.723406   2.008970   0.976331   0.000000
    11  H    5.410746   3.271868   2.347067   0.962140   1.545848
                   11
    11  H    0.000000
 Stoichiometry    H5O5P
 Framework group  C1[X(H5O5P)]
 Deg. of freedom    27
 Full point group                 C1      NOp   1
 Largest Abelian subgroup         C1      NOp   1
 Largest concise Abelian subgroup C1      NOp   1
                         Standard orientation:                         
 ---------------------------------------------------------------------
 Center     Atomic      Atomic             Coordinates (Angstroms)
 Number     Number       Type             X           Y           Z
 ---------------------------------------------------------------------
      1         15           0       -0.480035   -0.020038    0.058758
      2          8           0        0.300515   -0.434301    1.254936
      3          8           0       -1.214422    1.401076    0.150511
      4          1           0       -1.757130    1.490426    0.942157
      5          8           0       -1.713642   -0.990044   -0.291553
      6          1           0       -1.492824   -1.918776   -0.156330
      7          8           0        0.366422    0.113978   -1.269648
      8          1           0        1.335231    0.120521   -1.050084
      9          8           0        2.727203   -0.067217   -0.039856
     10          1           0        2.170699   -0.299367    0.728019
     11          1           0        3.215940    0.719838    0.219749
 ---------------------------------------------------------------------
 Rotational constants (GHZ):      4.4973296      1.8245811      1.8027420
 Standard basis: 6-311G(d,p) (5D, 7F)
 There are   152 symmetry adapted cartesian basis functions of A   symmetry.
 There are   146 symmetry adapted basis functions of A   symmetry.
   146 basis functions,   246 primitive gaussians,   152 cartesian basis functions
    30 alpha electrons       30 beta electrons
       nuclear repulsion energy       368.5590911068 Hartrees.
 NAtoms=   11 NActive=   11 NUniq=   11 SFac= 1.00D+00 NAtFMM=   60 NAOKFM=F Big=F
 Integral buffers will be    131072 words long.
 Raffenetti 2 integral format.
 Two-electron integral symmetry is turned on.
 One-electron integrals computed using PRISM.
 NBasis=   146 RedAO= T EigKep=  8.81D-03  NBF=   146
 NBsUse=   146 1.00D-06 EigRej= -1.00D+00 NBFU=   146
 Initial guess from the checkpoint file:  "H3PO42-h2o.chk"
 B after Tr=     0.000000    0.000000    0.000000
         Rot=    1.000000    0.000000    0.000000    0.000000 Ang=   0.00 deg.
 Keep R1 ints in memory in canonical form, NReq=59463473.
 Requested convergence on RMS density matrix=1.00D-08 within 128 cycles.
 Requested convergence on MAX density matrix=1.00D-06.
 Requested convergence on             energy=1.00D-06.
 No special actions if energy rises.
 SCF Done:  E(RB3LYP) =  -720.743160978     A.U. after    1 cycles
            NFock=  1  Conv=0.13D-08     -V/T= 2.0019

 **********************************************************************

            Population analysis using the SCF density.

 **********************************************************************

 Orbital symmetries:
       Occupied  (A) (A) (A) (A) (A) (A) (A) (A) (A) (A) (A) (A)
                 (A) (A) (A) (A) (A) (A) (A) (A) (A) (A) (A) (A)
                 (A) (A) (A) (A) (A) (A)
       Virtual   (A) (A) (A) (A) (A) (A) (A) (A) (A) (A) (A) (A)
                 (A) (A) (A) (A) (A) (A) (A) (A) (A) (A) (A) (A)
                 (A) (A) (A) (A) (A) (A) (A) (A) (A) (A) (A) (A)
                 (A) (A) (A) (A) (A) (A) (A) (A) (A) (A) (A) (A)
                 (A) (A) (A) (A) (A) (A) (A) (A) (A) (A) (A) (A)
                 (A) (A) (A) (A) (A) (A) (A) (A) (A) (A) (A) (A)
                 (A) (A) (A) (A) (A) (A) (A) (A) (A) (A) (A) (A)
                 (A) (A) (A) (A) (A) (A) (A) (A) (A) (A) (A) (A)
                 (A) (A) (A) (A) (A) (A) (A) (A) (A) (A) (A) (A)
                 (A) (A) (A) (A) (A) (A) (A) (A)
 The electronic state is 1-A.
 Alpha  occ. eigenvalues --  -77.20630 -19.16713 -19.16702 -19.14671 -19.13548
 Alpha  occ. eigenvalues --  -19.09287  -6.68693  -4.84930  -4.84902  -4.84768
 Alpha  occ. eigenvalues --   -1.11608  -1.05324  -1.04798  -1.02668  -0.97982
 Alpha  occ. eigenvalues --   -0.66756  -0.57694  -0.55769  -0.54860  -0.48802
 Alpha  occ. eigenvalues --   -0.44504  -0.43962  -0.41002  -0.39340  -0.38814
 Alpha  occ. eigenvalues --   -0.37788  -0.35151  -0.33261  -0.31319  -0.31112
 Alpha virt. eigenvalues --    0.00209   0.03336   0.04217   0.10522   0.11238
 Alpha virt. eigenvalues --    0.13449   0.13831   0.16523   0.18709   0.20639
 Alpha virt. eigenvalues --    0.22973   0.23457   0.33712   0.36049   0.37351
 Alpha virt. eigenvalues --    0.38999   0.41280   0.43662   0.59506   0.60956
 Alpha virt. eigenvalues --    0.70137   0.73224   0.75655   0.76979   0.79223
 Alpha virt. eigenvalues --    0.81825   0.83697   0.85683   0.88304   0.90004
 Alpha virt. eigenvalues --    0.91634   0.92857   0.93905   1.00026   1.00880
 Alpha virt. eigenvalues --    1.02389   1.03993   1.12466   1.17465   1.19150
 Alpha virt. eigenvalues --    1.19603   1.22520   1.27940   1.33483   1.34527
 Alpha virt. eigenvalues --    1.35023   1.41784   1.44865   1.46903   1.51031
 Alpha virt. eigenvalues --    1.55199   1.59113   1.64222   1.70875   1.72414
 Alpha virt. eigenvalues --    1.83537   1.92585   1.94034   1.94785   2.08705
 Alpha virt. eigenvalues --    2.16779   2.38142   2.39949   2.44209   2.45087
 Alpha virt. eigenvalues --    2.49888   2.79356   2.81173   2.83137   2.87431
 Alpha virt. eigenvalues --    2.88434   2.98812   3.00451   3.02466   3.04522
 Alpha virt. eigenvalues --    3.06328   3.06793   3.09759   3.12063   3.12996
 Alpha virt. eigenvalues --    3.17699   3.24343   3.29279   3.34500   3.36684
 Alpha virt. eigenvalues --    3.50711   3.59943   3.70280   3.70838   3.72692
 Alpha virt. eigenvalues --    3.80152   4.73754   4.75286   4.77689   4.80752
 Alpha virt. eigenvalues --    4.82123   4.84672   4.90540   4.95483   5.03409
 Alpha virt. eigenvalues --    5.15429   5.26643   5.37509   5.41164   5.44326
 Alpha virt. eigenvalues --    5.59526   7.01480  13.82118  13.87061  14.01357
 Alpha virt. eigenvalues --   49.76520  49.77264  49.78705  49.83416  49.89933
 Alpha virt. eigenvalues --  163.03823
          Condensed to atoms (all electrons):
               1          2          3          4          5          6
     1  P   12.380905   0.536494   0.322094  -0.025051   0.320475  -0.022330
     2  O    0.536494   8.183840  -0.029271  -0.002863  -0.032892  -0.001129
     3  O    0.322094  -0.029271   7.954234   0.323305  -0.039581  -0.000431
     4  H   -0.025051  -0.002863   0.323305   0.400143  -0.002245  -0.000353
     5  O    0.320475  -0.032892  -0.039581  -0.002245   7.968824   0.321231
     6  H   -0.022330  -0.001129  -0.000431  -0.000353   0.321231   0.398249
     7  O    0.346023  -0.033397  -0.035628  -0.000483  -0.034013  -0.001023
     8  H   -0.036077  -0.002952  -0.000813  -0.000264  -0.001929  -0.000260
     9  O    0.003943  -0.014875  -0.000129  -0.000056  -0.000028   0.000040
    10  H   -0.006423   0.038218  -0.000300  -0.000029  -0.000121  -0.000219
    11  H    0.003320   0.000704  -0.000047  -0.000005   0.000013   0.000013
               7          8          9         10         11
     1  P    0.346023  -0.036077   0.003943  -0.006423   0.003320
     2  O   -0.033397  -0.002952  -0.014875   0.038218   0.000704
     3  O   -0.035628  -0.000813  -0.000129  -0.000300  -0.000047
     4  H   -0.000483  -0.000264  -0.000056  -0.000029  -0.000005
     5  O   -0.034013  -0.001929  -0.000028  -0.000121   0.000013
     6  H   -0.001023  -0.000260   0.000040  -0.000219   0.000013
     7  O    8.003155   0.304748  -0.028511   0.004070   0.001318
     8  H    0.304748   0.351830   0.087085  -0.017633  -0.006924
     9  O   -0.028511   0.087085   7.852563   0.298829   0.310127
    10  H    0.004070  -0.017633   0.298829   0.418549  -0.025683
    11  H    0.001318  -0.006924   0.310127  -0.025683   0.451541
 Mulliken charges:
               1
     1  P    1.176626
     2  O   -0.641878
     3  O   -0.493431
     4  H    0.307900
     5  O   -0.499733
     6  H    0.306211
     7  O   -0.526260
     8  H    0.323188
     9  O   -0.508988
    10  H    0.290742
    11  H    0.265623
 Sum of Mulliken charges =   0.00000
 Mulliken charges with hydrogens summed into heavy atoms:
               1
     1  P    1.176626
     2  O   -0.641878
     3  O   -0.185531
     5  O   -0.193522
     7  O   -0.203072
     9  O    0.047377
 Electronic spatial extent (au):  <R**2>=            742.3342
 Charge=              0.0000 electrons
 Dipole moment (field-independent basis, Debye):
    X=              0.0025    Y=              0.3248    Z=              1.5025  Tot=              1.5372
 Quadrupole moment (field-independent basis, Debye-Ang):
   XX=            -36.6824   YY=            -36.8666   ZZ=            -46.2265
   XY=              5.0041   XZ=             -2.1492   YZ=              3.9090
 Traceless Quadrupole moment (field-independent basis, Debye-Ang):
   XX=              3.2428   YY=              3.0586   ZZ=             -6.3014
   XY=              5.0041   XZ=             -2.1492   YZ=              3.9090
 Octapole moment (field-independent basis, Debye-Ang**2):
  XXX=             15.5988  YYY=            -13.1190  ZZZ=              0.0221  XYY=             -5.2245
  XXY=             19.3686  XXZ=             14.9892  XZZ=             -0.9046  YZZ=              5.1525
  YYZ=              2.8870  XYZ=             -4.0237
 Hexadecapole moment (field-independent basis, Debye-Ang**3):
 XXXX=           -481.8349 YYYY=           -133.9051 ZZZZ=           -172.0943 XXXY=             42.0977
 XXXZ=              7.8585 YYYX=             20.6403 YYYZ=             10.2988 ZZZX=             -6.1501
 ZZZY=              7.2613 XXYY=            -88.3335 XXZZ=           -100.6773 YYZZ=            -51.0381
 XXYZ=              9.4158 YYXZ=             -6.4617 ZZXY=             -4.8964
 N-N= 3.685590911068D+02 E-N=-2.446481173355D+03  KE= 7.193550111562D+02
 1\1\GINC-CADMIO\SP\RB3LYP\6-311G(d,p)\H5O5P1\SARARIOP\20-Jun-2017\0\\#
  B3LYP/6-311G** geom=check guess=read output=wfx\\Title Card Required\
 \0,1\P,0,-0.8563707796,-0.6520821428,-0.9620311274\O,0,-0.4274325541,0
 .2578781161,-2.0573380489\O,0,-0.1623592929,-0.4198151631,0.4633492888
 \H,0,0.8000277753,-0.4015032221,0.4114401919\O,0,-0.5236296988,-2.2029
 983751,-1.2253888936\H,0,-0.6680268844,-2.4524267285,-2.1454563951\O,0
 ,-2.3963403678,-0.5850102491,-0.6111650325\H,0,-2.799162411,0.22315752
 55,-1.025219117\O,0,-2.8528766337,1.605923718,-2.06370996\H,0,-1.94259
 89843,1.4397020376,-2.3751374012\H,0,-2.8369850087,2.4811766734,-1.664
 4688749\\Version=AM64L-G09RevD.01\State=1-A\HF=-720.743161\RMSD=1.332e
 -09\Dipole=0.4843006,0.3395694,-0.1261909\Quadrupole=-0.5147534,3.8940
 825,-3.3793291,-2.5259133,2.0312,4.1685658\PG=C01 [X(H5O5P1)]\\@

 Writing a WFNX file to "H3PO42-h2o.wfx"


 NATURE GIVES TO EVERY TIME AND SEASON SOME BEAUTY OF ITS OWN.

                                                    --DICKENS
 Job cpu time:       0 days  0 hours  0 minutes 20.9 seconds.
 File lengths (MBytes):  RWF=     10 Int=      0 D2E=      0 Chk=      4 Scr=      1
 Normal termination of Gaussian 09 at Tue Jun 20 23:38:27 2017.
