 Entering Gaussian System, Link 0=g09
 Initial command:
 /usr/local/gaussian/gaussian09.d1/g09/l1.exe "/scratch/sarariop/HCl2PO4-h2o.com/Gau-31036.inp" -scrdir="/scratch/sarariop/HCl2PO4-h2o.com/"
 Default is to use a total of  10 processors:
                               10 via shared-memory
                                1 via Linda
 Entering Link 1 = /usr/local/gaussian/gaussian09.d1/g09/l1.exe PID=     31037.
  
 Copyright (c) 1988,1990,1992,1993,1995,1998,2003,2009,2013,
            Gaussian, Inc.  All Rights Reserved.
  
 This is part of the Gaussian(R) 09 program.  It is based on
 the Gaussian(R) 03 system (copyright 2003, Gaussian, Inc.),
 the Gaussian(R) 98 system (copyright 1998, Gaussian, Inc.),
 the Gaussian(R) 94 system (copyright 1995, Gaussian, Inc.),
 the Gaussian 92(TM) system (copyright 1992, Gaussian, Inc.),
 the Gaussian 90(TM) system (copyright 1990, Gaussian, Inc.),
 the Gaussian 88(TM) system (copyright 1988, Gaussian, Inc.),
 the Gaussian 86(TM) system (copyright 1986, Carnegie Mellon
 University), and the Gaussian 82(TM) system (copyright 1983,
 Carnegie Mellon University). Gaussian is a federally registered
 trademark of Gaussian, Inc.
  
 This software contains proprietary and confidential information,
 including trade secrets, belonging to Gaussian, Inc.
  
 This software is provided under written license and may be
 used, copied, transmitted, or stored only in accord with that
 written license.
  
 The following legend is applicable only to US Government
 contracts under FAR:
  
                    RESTRICTED RIGHTS LEGEND
  
 Use, reproduction and disclosure by the US Government is
 subject to restrictions as set forth in subparagraphs (a)
 and (c) of the Commercial Computer Software - Restricted
 Rights clause in FAR 52.227-19.
  
 Gaussian, Inc.
 340 Quinnipiac St., Bldg. 40, Wallingford CT 06492
  
  
 ---------------------------------------------------------------
 Warning -- This program may not be used in any manner that
 competes with the business of Gaussian, Inc. or will provide
 assistance to any competitor of Gaussian, Inc.  The licensee
 of this program is prohibited from giving any competitor of
 Gaussian, Inc. access to this program.  By using this program,
 the user acknowledges that Gaussian, Inc. is engaged in the
 business of creating and licensing software in the field of
 computational chemistry and represents and warrants to the
 licensee that it is not a competitor of Gaussian, Inc. and that
 it will not use this program in any manner prohibited above.
 ---------------------------------------------------------------
  

 Cite this work as:
 Gaussian 09, Revision D.01,
 M. J. Frisch, G. W. Trucks, H. B. Schlegel, G. E. Scuseria, 
 M. A. Robb, J. R. Cheeseman, G. Scalmani, V. Barone, B. Mennucci, 
 G. A. Petersson, H. Nakatsuji, M. Caricato, X. Li, H. P. Hratchian, 
 A. F. Izmaylov, J. Bloino, G. Zheng, J. L. Sonnenberg, M. Hada, 
 M. Ehara, K. Toyota, R. Fukuda, J. Hasegawa, M. Ishida, T. Nakajima, 
 Y. Honda, O. Kitao, H. Nakai, T. Vreven, J. A. Montgomery, Jr., 
 J. E. Peralta, F. Ogliaro, M. Bearpark, J. J. Heyd, E. Brothers, 
 K. N. Kudin, V. N. Staroverov, T. Keith, R. Kobayashi, J. Normand, 
 K. Raghavachari, A. Rendell, J. C. Burant, S. S. Iyengar, J. Tomasi, 
 M. Cossi, N. Rega, J. M. Millam, M. Klene, J. E. Knox, J. B. Cross, 
 V. Bakken, C. Adamo, J. Jaramillo, R. Gomperts, R. E. Stratmann, 
 O. Yazyev, A. J. Austin, R. Cammi, C. Pomelli, J. W. Ochterski, 
 R. L. Martin, K. Morokuma, V. G. Zakrzewski, G. A. Voth, 
 P. Salvador, J. J. Dannenberg, S. Dapprich, A. D. Daniels, 
 O. Farkas, J. B. Foresman, J. V. Ortiz, J. Cioslowski, 
 and D. J. Fox, Gaussian, Inc., Wallingford CT, 2013.
 
 ******************************************
 Gaussian 09:  AM64L-G09RevD.01 24-Apr-2013
                23-Jun-2017 
 ******************************************
 %chk=HCl2PO4-h2o.chk
 Default route:  MaxDisk=70GB
 -----------------------------------------
 # opt freq b3lyp/6-311g geom=connectivity
 -----------------------------------------
 1/14=-1,18=20,19=15,26=3,38=1,57=2/1,3;
 2/9=110,12=2,17=6,18=5,40=1/2;
 3/5=4,6=6,11=2,16=1,25=1,30=1,71=1,74=-5/1,2,3;
 4//1;
 5/5=2,38=5/2;
 6/7=2,8=2,9=2,10=2,28=1/1;
 7//1,2,3,16;
 1/14=-1,18=20,19=15,26=3/3(2);
 2/9=110/2;
 99//99;
 2/9=110/2;
 3/5=4,6=6,11=2,16=1,25=1,30=1,71=1,74=-5/1,2,3;
 4/5=5,16=3,69=1/1;
 5/5=2,38=5/2;
 7//1,2,3,16;
 1/14=-1,18=20,19=15,26=3/3(-5);
 2/9=110/2;
 6/7=2,8=2,9=2,10=2,19=2,28=1/1;
 99/9=1/99;
 -------------------
 Title Card Required
 -------------------
 Symbolic Z-matrix:
 Charge =  0 Multiplicity = 1
 P                    -0.07407   0.08642   0. 
 O                    -0.95587  -0.93916  -0.9289 
 O                     0.77935   0.74323  -1.17354 
 H                     0.29716   1.38625  -1.70758 
 O                     1.01722  -0.81571   0.78801 
 O                    -0.8041    0.93216   0.94369 
 Cl                    1.99075  -1.9578   -0.0985 
 Cl                   -2.15178  -1.89395  -0.11042 
 O                     0.19155   3.01135  -1.29698 
 H                     1.15155   3.01135  -1.29698 
 H                    -0.1289    3.91628  -1.29698 
 
 Add virtual bond connecting atoms O9         and H4         Dist= 3.17D+00.

 GradGradGradGradGradGradGradGradGradGradGradGradGradGradGradGradGradGrad
 Berny optimization.
 Initialization pass.
                           ----------------------------
                           !    Initial Parameters    !
                           ! (Angstroms and Degrees)  !
 --------------------------                            --------------------------
 ! Name  Definition              Value          Derivative Info.                !
 --------------------------------------------------------------------------------
 ! R1    R(1,2)                  1.6408         estimate D2E/DX2                !
 ! R2    R(1,3)                  1.5928         estimate D2E/DX2                !
 ! R3    R(1,5)                  1.6204         estimate D2E/DX2                !
 ! R4    R(1,6)                  1.4625         estimate D2E/DX2                !
 ! R5    R(2,8)                  1.7354         estimate D2E/DX2                !
 ! R6    R(3,4)                  0.965          estimate D2E/DX2                !
 ! R7    R(4,9)                  1.6795         estimate D2E/DX2                !
 ! R8    R(5,7)                  1.743          estimate D2E/DX2                !
 ! R9    R(9,10)                 0.96           estimate D2E/DX2                !
 ! R10   R(9,11)                 0.96           estimate D2E/DX2                !
 ! A1    A(2,1,3)               97.388          estimate D2E/DX2                !
 ! A2    A(2,1,5)              106.8137         estimate D2E/DX2                !
 ! A3    A(2,1,6)              117.2907         estimate D2E/DX2                !
 ! A4    A(3,1,5)              103.1224         estimate D2E/DX2                !
 ! A5    A(3,1,6)              120.2934         estimate D2E/DX2                !
 ! A6    A(5,1,6)              110.1414         estimate D2E/DX2                !
 ! A7    A(1,2,8)              116.5661         estimate D2E/DX2                !
 ! A8    A(1,3,4)              114.507          estimate D2E/DX2                !
 ! A9    A(3,4,9)              122.745          estimate D2E/DX2                !
 ! A10   A(1,5,7)              119.5785         estimate D2E/DX2                !
 ! A11   A(4,9,10)              86.3949         estimate D2E/DX2                !
 ! A12   A(4,9,11)             158.9237         estimate D2E/DX2                !
 ! A13   A(10,9,11)            109.5            estimate D2E/DX2                !
 ! D1    D(3,1,2,8)           -177.411          estimate D2E/DX2                !
 ! D2    D(5,1,2,8)             76.4279         estimate D2E/DX2                !
 ! D3    D(6,1,2,8)            -47.6745         estimate D2E/DX2                !
 ! D4    D(2,1,3,4)             75.9752         estimate D2E/DX2                !
 ! D5    D(5,1,3,4)           -174.7723         estimate D2E/DX2                !
 ! D6    D(6,1,3,4)            -51.7017         estimate D2E/DX2                !
 ! D7    D(2,1,5,7)             49.5502         estimate D2E/DX2                !
 ! D8    D(3,1,5,7)            -52.477          estimate D2E/DX2                !
 ! D9    D(6,1,5,7)            177.9402         estimate D2E/DX2                !
 ! D10   D(1,3,4,9)             87.0658         estimate D2E/DX2                !
 ! D11   D(3,4,9,10)            56.3058         estimate D2E/DX2                !
 ! D12   D(3,4,9,11)          -163.6444         estimate D2E/DX2                !
 ! D13   D(4,9,10,11)          165.8203         estimate D2E/DX2                !
 --------------------------------------------------------------------------------
 Trust Radius=3.00D-01 FncErr=1.00D-07 GrdErr=1.00D-06
 Number of steps in this run=     46 maximum allowed number of steps=    100.
 GradGradGradGradGradGradGradGradGradGradGradGradGradGradGradGradGradGrad

                          Input orientation:                          
 ---------------------------------------------------------------------
 Center     Atomic      Atomic             Coordinates (Angstroms)
 Number     Number       Type             X           Y           Z
 ---------------------------------------------------------------------
      1         15           0       -0.074074    0.086420    0.000000
      2          8           0       -0.955872   -0.939158   -0.928895
      3          8           0        0.779346    0.743231   -1.173544
      4          1           0        0.297159    1.386251   -1.707578
      5          8           0        1.017220   -0.815707    0.788009
      6          8           0       -0.804100    0.932157    0.943691
      7         17           0        1.990751   -1.957801   -0.098497
      8         17           0       -2.151783   -1.893947   -0.110420
      9          8           0        0.191552    3.011349   -1.296977
     10          1           0        1.151552    3.011349   -1.296977
     11          1           0       -0.128902    3.916285   -1.296977
 ---------------------------------------------------------------------
                    Distance matrix (angstroms):
                    1          2          3          4          5
     1  P    0.000000
     2  O    1.640800   0.000000
     3  O    1.592775   2.429252   0.000000
     4  H    2.177888   2.753899   0.964972   0.000000
     5  O    1.620405   2.618414   2.516856   3.405152   0.000000
     6  O    1.462451   2.651685   2.650600   2.906579   2.529125
     7  Cl   2.907240   3.226419   3.149413   4.079225   1.742996
     8  Cl   2.872442   1.735433   4.083682   4.394079   3.465885
     9  O    3.210595   4.130203   2.346294   1.679491   4.435679
    10  H    3.426298   4.492575   2.301767   1.881363   4.360226
    11  H    4.043887   4.939098   3.302790   2.598306   5.296462
                    6          7          8          9         10
     6  O    0.000000
     7  Cl   4.153216   0.000000
     8  Cl   3.303674   4.143043   0.000000
     9  O    3.214803   5.419033   5.564267   0.000000
    10  H    3.628803   5.180064   6.031739   0.960000   0.000000
    11  H    3.792296   6.358787   6.265681   0.960000   1.567952
                   11
    11  H    0.000000
 Stoichiometry    Cl2H3O5P
 Framework group  C1[X(Cl2H3O5P)]
 Deg. of freedom    27
 Full point group                 C1      NOp   1
 Largest Abelian subgroup         C1      NOp   1
 Largest concise Abelian subgroup C1      NOp   1
                         Standard orientation:                         
 ---------------------------------------------------------------------
 Center     Atomic      Atomic             Coordinates (Angstroms)
 Number     Number       Type             X           Y           Z
 ---------------------------------------------------------------------
      1         15           0       -0.370228   -0.121145    0.313441
      2          8           0        0.559871   -0.872885   -0.809959
      3          8           0       -1.360209    0.610958   -0.696951
      4          1           0       -2.024499    0.034882   -1.094479
      5          8           0        0.512334    1.098669    0.912483
      6          8           0       -0.900736   -0.940922    1.402151
      7         17           0        1.308192    2.201251   -0.177910
      8         17           0        1.814908   -1.910562   -0.210097
      9          8           0       -3.503896   -0.283574   -0.366014
     10          1           0       -3.636230    0.667230   -0.358283
     11          1           0       -4.337467   -0.724606   -0.186431
 ---------------------------------------------------------------------
 Rotational constants (GHZ):      1.1931310      0.9442508      0.6204917
 Standard basis: 6-311G (5D, 7F)
 There are   137 symmetry adapted cartesian basis functions of A   symmetry.
 There are   137 symmetry adapted basis functions of A   symmetry.
   137 basis functions,   271 primitive gaussians,   137 cartesian basis functions
    46 alpha electrons       46 beta electrons
       nuclear repulsion energy       710.9881224973 Hartrees.



 Warning!  P  atom    1 may be hypervalent but has no d functions.



 NAtoms=   11 NActive=   11 NUniq=   11 SFac= 1.00D+00 NAtFMM=   60 NAOKFM=F Big=F
 Integral buffers will be    131072 words long.
 Raffenetti 2 integral format.
 Two-electron integral symmetry is turned on.
 One-electron integrals computed using PRISM.
 NBasis=   137 RedAO= T EigKep=  1.01D-02  NBF=   137
 NBsUse=   137 1.00D-06 EigRej= -1.00D+00 NBFU=   137
 ExpMin= 6.85D-02 ExpMax= 1.06D+05 ExpMxC= 3.62D+03 IAcc=2 IRadAn=         4 AccDes= 0.00D+00
 Harris functional with IExCor=  402 and IRadAn=       4 diagonalized for initial guess.
 HarFok:  IExCor=  402 AccDes= 0.00D+00 IRadAn=         4 IDoV= 1 UseB2=F ITyADJ=14
 ICtDFT=  3500011 ScaDFX=  1.000000  1.000000  1.000000  1.000000
 FoFCou: FMM=F IPFlag=           0 FMFlag=      100000 FMFlg1=           0
         NFxFlg=           0 DoJE=T BraDBF=F KetDBF=T FulRan=T
         wScrn=  0.000000 ICntrl=     500 IOpCl=  0 I1Cent=   200000004 NGrid=           0
         NMat0=    1 NMatS0=      1 NMatT0=    0 NMatD0=    1 NMtDS0=    0 NMtDT0=    0
 Petite list used in FoFCou.
 Keep R1 ints in memory in canonical form, NReq=46075568.
 Requested convergence on RMS density matrix=1.00D-08 within 128 cycles.
 Requested convergence on MAX density matrix=1.00D-06.
 Requested convergence on             energy=1.00D-06.
 No special actions if energy rises.
 Integral accuracy reduced to 1.0D-05 until final iterations.
 EnCoef did     2 forward-backward iterations
 EnCoef did     2 forward-backward iterations
 Initial convergence to 1.0D-05 achieved.  Increase integral accuracy.
 SCF Done:  E(RB3LYP) =  -1639.50216452     A.U. after   17 cycles
            NFock= 17  Conv=0.99D-08     -V/T= 2.0014

 **********************************************************************

            Population analysis using the SCF density.

 **********************************************************************

 Orbital symmetries:
       Occupied  (A) (A) (A) (A) (A) (A) (A) (A) (A) (A) (A) (A)
                 (A) (A) (A) (A) (A) (A) (A) (A) (A) (A) (A) (A)
                 (A) (A) (A) (A) (A) (A) (A) (A) (A) (A) (A) (A)
                 (A) (A) (A) (A) (A) (A) (A) (A) (A) (A)
       Virtual   (A) (A) (A) (A) (A) (A) (A) (A) (A) (A) (A) (A)
                 (A) (A) (A) (A) (A) (A) (A) (A) (A) (A) (A) (A)
                 (A) (A) (A) (A) (A) (A) (A) (A) (A) (A) (A) (A)
                 (A) (A) (A) (A) (A) (A) (A) (A) (A) (A) (A) (A)
                 (A) (A) (A) (A) (A) (A) (A) (A) (A) (A) (A) (A)
                 (A) (A) (A) (A) (A) (A) (A) (A) (A) (A) (A) (A)
                 (A) (A) (A) (A) (A) (A) (A) (A) (A) (A) (A) (A)
                 (A) (A) (A) (A) (A) (A) (A)
 The electronic state is 1-A.
 Alpha  occ. eigenvalues -- -101.62590-101.62193 -77.27929 -19.22597 -19.22336
 Alpha  occ. eigenvalues --  -19.17950 -19.16533 -19.12922  -9.53743  -9.53332
 Alpha  occ. eigenvalues --   -7.30802  -7.30395  -7.28909  -7.28869  -7.28496
 Alpha  occ. eigenvalues --   -7.28465  -6.77712  -4.93754  -4.93726  -4.93667
 Alpha  occ. eigenvalues --   -1.17378  -1.10187  -1.09632  -1.06907  -1.04358
 Alpha  occ. eigenvalues --   -0.85302  -0.84054  -0.67331  -0.60135  -0.57657
 Alpha  occ. eigenvalues --   -0.56753  -0.49925  -0.48344  -0.46094  -0.44561
 Alpha  occ. eigenvalues --   -0.43120  -0.42042  -0.40628  -0.38550  -0.35861
 Alpha  occ. eigenvalues --   -0.34997  -0.34933  -0.33471  -0.32885  -0.32211
 Alpha  occ. eigenvalues --   -0.31909
 Alpha virt. eigenvalues --   -0.13165  -0.12723  -0.00942   0.04174   0.06792
 Alpha virt. eigenvalues --    0.07992   0.09356   0.11683   0.15253   0.18597
 Alpha virt. eigenvalues --    0.19087   0.21980   0.24992   0.28329   0.29223
 Alpha virt. eigenvalues --    0.29820   0.29961   0.33272   0.34416   0.36158
 Alpha virt. eigenvalues --    0.36840   0.42159   0.66367   0.67334   0.67910
 Alpha virt. eigenvalues --    0.71971   0.74362   0.77895   0.80371   0.81869
 Alpha virt. eigenvalues --    0.85245   0.85527   0.88051   0.89928   0.98148
 Alpha virt. eigenvalues --    0.98823   1.04372   1.04694   1.09723   1.17363
 Alpha virt. eigenvalues --    1.18583   1.25813   1.29342   1.40963   1.43796
 Alpha virt. eigenvalues --    1.49951   1.59510   2.05132   2.08312   2.08720
 Alpha virt. eigenvalues --    2.09824   2.10485   2.13379   2.15553   2.16938
 Alpha virt. eigenvalues --    2.28363   4.66056   4.68686   4.71401   4.72389
 Alpha virt. eigenvalues --    4.74712   4.76282   4.77039   4.80507   4.84756
 Alpha virt. eigenvalues --    4.86768   4.88422   4.89700   4.92564   4.98338
 Alpha virt. eigenvalues --    5.04964   6.64145   9.37288   9.41592  13.67260
 Alpha virt. eigenvalues --   13.68020  13.80351  25.29417  25.38092  25.38743
 Alpha virt. eigenvalues --   25.44535  25.64586  25.70471  49.66285  49.68092
 Alpha virt. eigenvalues --   49.68705  49.73095  49.81800 162.72229 215.30566
 Alpha virt. eigenvalues --  215.35229
          Condensed to atoms (all electrons):
               1          2          3          4          5          6
     1  P   12.813123   0.051054   0.075360  -0.037031   0.084929   0.358997
     2  O    0.051054   8.804533  -0.063994   0.001893  -0.061823  -0.058174
     3  O    0.075360  -0.063994   8.679674   0.233321  -0.064911  -0.057219
     4  H   -0.037031   0.001893   0.233321   0.307467  -0.002443  -0.001689
     5  O    0.084929  -0.061823  -0.064911  -0.002443   8.761500  -0.054568
     6  O    0.358997  -0.058174  -0.057219  -0.001689  -0.054568   8.443856
     7  Cl  -0.042721   0.002414   0.002001   0.001677   0.000254   0.002816
     8  Cl  -0.044351   0.002497   0.003659   0.000286   0.003146   0.001332
     9  O    0.011322  -0.000076  -0.053275   0.056662  -0.000044  -0.000247
    10  H   -0.001197   0.000042   0.014795  -0.018002  -0.000067   0.000082
    11  H    0.000769  -0.000014   0.002364  -0.002895   0.000007   0.000567
               7          8          9         10         11
     1  P   -0.042721  -0.044351   0.011322  -0.001197   0.000769
     2  O    0.002414   0.002497  -0.000076   0.000042  -0.000014
     3  O    0.002001   0.003659  -0.053275   0.014795   0.002364
     4  H    0.001677   0.000286   0.056662  -0.018002  -0.002895
     5  O    0.000254   0.003146  -0.000044  -0.000067   0.000007
     6  O    0.002816   0.001332  -0.000247   0.000082   0.000567
     7  Cl  16.785080  -0.002085   0.000024   0.000014  -0.000001
     8  Cl  -0.002085  16.780537   0.000015  -0.000013   0.000001
     9  O    0.000024   0.000015   8.262150   0.234569   0.257554
    10  H    0.000014  -0.000013   0.234569   0.388242  -0.026109
    11  H   -0.000001   0.000001   0.257554  -0.026109   0.350883
 Mulliken charges:
               1
     1  P    1.729745
     2  O   -0.678352
     3  O   -0.771775
     4  H    0.460754
     5  O   -0.665982
     6  O   -0.635754
     7  Cl   0.250526
     8  Cl   0.254973
     9  O   -0.768653
    10  H    0.407643
    11  H    0.416875
 Sum of Mulliken charges =   0.00000
 Mulliken charges with hydrogens summed into heavy atoms:
               1
     1  P    1.729745
     2  O   -0.678352
     3  O   -0.311022
     5  O   -0.665982
     6  O   -0.635754
     7  Cl   0.250526
     8  Cl   0.254973
     9  O    0.055865
 Electronic spatial extent (au):  <R**2>=           1765.1620
 Charge=              0.0000 electrons
 Dipole moment (field-independent basis, Debye):
    X=             -3.6166    Y=              0.6266    Z=             -2.3030  Tot=              4.3332
 Quadrupole moment (field-independent basis, Debye-Ang):
   XX=            -41.4773   YY=            -67.0387   ZZ=            -74.4681
   XY=             -2.3534   XZ=              3.6348   YZ=              0.0037
 Traceless Quadrupole moment (field-independent basis, Debye-Ang):
   XX=             19.5174   YY=             -6.0440   ZZ=            -13.4734
   XY=             -2.3534   XZ=              3.6348   YZ=              0.0037
 Octapole moment (field-independent basis, Debye-Ang**2):
  XXX=           -124.0259  YYY=              1.1491  ZZZ=            -10.5651  XYY=              2.9723
  XXY=             -3.5714  XXZ=             -7.9304  XZZ=             -0.9774  YZZ=              5.3286
  YYZ=             -6.4998  XYZ=             -8.8133
 Hexadecapole moment (field-independent basis, Debye-Ang**3):
 XXXX=           -498.7537 YYYY=           -800.1086 ZZZZ=           -239.5676 XXXY=              5.4938
 XXXZ=             24.2336 YYYX=              1.6503 YYYZ=            -15.1635 ZZZX=             11.7757
 ZZZY=              2.4439 XXYY=           -262.9194 XXZZ=           -223.4475 YYZZ=           -181.4842
 XXYZ=            -11.2095 YYXZ=             -0.7818 ZZXY=             -2.2255
 N-N= 7.109881224973D+02 E-N=-5.314074425506D+03  KE= 1.637177454773D+03
 Calling FoFJK, ICntrl=      2127 FMM=F ISym2X=0 I1Cent= 0 IOpClX= 0 NMat=1 NMatS=1 NMatT=0.
 ***** Axes restored to original set *****
 -------------------------------------------------------------------
 Center     Atomic                   Forces (Hartrees/Bohr)
 Number     Number              X              Y              Z
 -------------------------------------------------------------------
      1       15           0.021991584   -0.002288283   -0.024383213
      2        8           0.000098375   -0.009860625   -0.045089967
      3        8           0.027788977   -0.012470316   -0.027086057
      4        1          -0.005981992    0.016110611   -0.009461892
      5        8           0.014448154   -0.006780322    0.042432590
      6        8          -0.051765392    0.055530677    0.068492899
      7       17           0.026957520   -0.029765142   -0.018102830
      8       17          -0.033928450   -0.028233635    0.017244375
      9        8          -0.002811211    0.009466677   -0.008968025
     10        1           0.012432670    0.002306771    0.005477779
     11        1          -0.009230235    0.005983587   -0.000555660
 -------------------------------------------------------------------
 Cartesian Forces:  Max     0.068492899 RMS     0.026079731

 GradGradGradGradGradGradGradGradGradGradGradGradGradGradGradGradGradGrad
 Berny optimization.
 FormGI is forming the generalized inverse of G from B-inverse, IUseBI=4.
 Internal  Forces:  Max     0.102149714 RMS     0.027897301
 Search for a local minimum.
 Step number   1 out of a maximum of   46
 All quantities printed in internal units (Hartrees-Bohrs-Radians)
 Mixed Optimization -- RFO/linear search
 Second derivative matrix not updated -- first step.
 ITU=  0
     Eigenvalues ---    0.00230   0.01064   0.01492   0.02873   0.03143
     Eigenvalues ---    0.03508   0.07718   0.12575   0.12728   0.13106
     Eigenvalues ---    0.15278   0.16000   0.16000   0.20753   0.21878
     Eigenvalues ---    0.25000   0.25000   0.25000   0.31176   0.31942
     Eigenvalues ---    0.44074   0.47466   0.52641   0.54418   0.55473
     Eigenvalues ---    0.55473   0.90588
 RFO step:  Lambda=-5.40342126D-02 EMin= 2.30000000D-03
 Linear search not attempted -- first point.
 Maximum step size (   0.300) exceeded in Quadratic search.
    -- Step size scaled by   0.838
 Iteration  1 RMS(Cart)=  0.14364933 RMS(Int)=  0.00550041
 Iteration  2 RMS(Cart)=  0.00878410 RMS(Int)=  0.00071417
 Iteration  3 RMS(Cart)=  0.00006603 RMS(Int)=  0.00071290
 Iteration  4 RMS(Cart)=  0.00000005 RMS(Int)=  0.00071290
 Variable       Old X    -DE/DX   Delta X   Delta X   Delta X     New X
                                 (Linear)    (Quad)   (Total)
    R1        3.10066   0.05776   0.00000   0.09788   0.09788   3.19854
    R2        3.00991   0.05062   0.00000   0.07311   0.07311   3.08302
    R3        3.06212   0.06007   0.00000   0.09525   0.09525   3.15738
    R4        2.76363   0.10215   0.00000   0.08922   0.08922   2.85285
    R5        3.27949   0.04704   0.00000   0.10561   0.10561   3.38510
    R6        1.82353   0.03284   0.00000   0.04603   0.04603   1.86956
    R7        3.17378   0.01617   0.00000   0.10335   0.10335   3.27713
    R8        3.29378   0.04377   0.00000   0.10031   0.10031   3.39410
    R9        1.81414   0.01243   0.00000   0.01712   0.01712   1.83125
   R10        1.81414   0.00872   0.00000   0.01201   0.01201   1.82615
    A1        1.69974  -0.00221   0.00000  -0.00676  -0.00679   1.69296
    A2        1.86425  -0.00048   0.00000  -0.00528  -0.00532   1.85893
    A3        2.04711  -0.00078   0.00000  -0.00319  -0.00323   2.04388
    A4        1.79983  -0.00135   0.00000  -0.00440  -0.00442   1.79540
    A5        2.09952   0.00596   0.00000   0.02338   0.02339   2.12290
    A6        1.92233  -0.00159   0.00000  -0.00580  -0.00584   1.91649
    A7        2.03446   0.01865   0.00000   0.05143   0.05143   2.08589
    A8        1.99852   0.02311   0.00000   0.09051   0.09051   2.08903
    A9        2.14230   0.03067   0.00000   0.08458   0.08458   2.22688
   A10        2.08704   0.01637   0.00000   0.04515   0.04515   2.13219
   A11        1.50787   0.00766   0.00000   0.03972   0.03996   1.54783
   A12        2.77374  -0.00768   0.00000  -0.03054  -0.03222   2.74152
   A13        1.91114   0.00106   0.00000   0.01521   0.01575   1.92688
    D1       -3.09641  -0.00251   0.00000  -0.00960  -0.00958  -3.10598
    D2        1.33392  -0.00018   0.00000  -0.00135  -0.00135   1.33257
    D3       -0.83208   0.00290   0.00000   0.01303   0.01301  -0.81907
    D4        1.32602  -0.00028   0.00000  -0.00531  -0.00532   1.32070
    D5       -3.05035  -0.00172   0.00000  -0.01379  -0.01379  -3.06414
    D6       -0.90236  -0.00107   0.00000  -0.00985  -0.00985  -0.91221
    D7        0.86481   0.00013   0.00000   0.00371   0.00370   0.86851
    D8       -0.91590   0.00316   0.00000   0.01423   0.01421  -0.90168
    D9        3.10564  -0.00227   0.00000  -0.00796  -0.00794   3.09771
   D10        1.51958  -0.00009   0.00000  -0.00115  -0.00115   1.51843
   D11        0.98272  -0.00879   0.00000  -0.10788  -0.10660   0.87613
   D12       -2.85613   0.00290   0.00000   0.02025   0.01896  -2.83717
   D13        2.89411  -0.00160   0.00000   0.01726   0.02070   2.91481
         Item               Value     Threshold  Converged?
 Maximum Force            0.102150     0.000450     NO 
 RMS     Force            0.027897     0.000300     NO 
 Maximum Displacement     0.390945     0.001800     NO 
 RMS     Displacement     0.149640     0.001200     NO 
 Predicted change in Energy=-2.907906D-02
 GradGradGradGradGradGradGradGradGradGradGradGradGradGradGradGradGradGrad

                          Input orientation:                          
 ---------------------------------------------------------------------
 Center     Atomic      Atomic             Coordinates (Angstroms)
 Number     Number       Type             X           Y           Z
 ---------------------------------------------------------------------
      1         15           0       -0.085381    0.050911    0.068187
      2          8           0       -1.020791   -0.970902   -0.904331
      3          8           0        0.757558    0.756128   -1.137547
      4          1           0        0.323155    1.441586   -1.703424
      5          8           0        1.060061   -0.914938    0.807586
      6          8           0       -0.813976    0.867722    1.107925
      7         17           0        2.074499   -2.073561   -0.116756
      8         17           0       -2.252573   -2.027192   -0.145525
      9          8           0        0.216172    3.146628   -1.405466
     10          1           0        1.171800    3.155909   -1.244958
     11          1           0       -0.117674    4.048135   -1.503856
 ---------------------------------------------------------------------
                    Distance matrix (angstroms):
                    1          2          3          4          5
     1  P    0.000000
     2  O    1.692597   0.000000
     3  O    1.631464   2.489889   0.000000
     4  H    2.288993   2.874863   0.989331   0.000000
     5  O    1.670812   2.695132   2.582153   3.521564   0.000000
     6  O    1.509664   2.733584   2.743048   3.086433   2.603862
     7  Cl   3.035238   3.378897   3.283822   4.235679   1.796079
     8  Cl   3.010133   1.791319   4.218041   4.592804   3.622026
     9  O    3.441810   4.328425   2.465638   1.734184   4.701710
    10  H    3.598037   4.685515   2.437639   1.967052   4.560398
    11  H    4.295365   5.134761   3.426006   2.651085   5.600171
                    6          7          8          9         10
     6  O    0.000000
     7  Cl   4.300498   0.000000
     8  Cl   3.467164   4.327416   0.000000
     9  O    3.545667   5.688983   5.869461   0.000000
    10  H    3.836035   5.425409   6.308694   0.969058   0.000000
    11  H    4.173878   6.648671   6.581219   0.966358   1.589288
                   11
    11  H    0.000000
 Stoichiometry    Cl2H3O5P
 Framework group  C1[X(Cl2H3O5P)]
 Deg. of freedom    27
 Full point group                 C1      NOp   1
 Largest Abelian subgroup         C1      NOp   1
 Largest concise Abelian subgroup C1      NOp   1
                         Standard orientation:                         
 ---------------------------------------------------------------------
 Center     Atomic      Atomic             Coordinates (Angstroms)
 Number     Number       Type             X           Y           Z
 ---------------------------------------------------------------------
      1         15           0       -0.373538   -0.129381    0.372443
      2          8           0        0.562033   -0.929832   -0.788966
      3          8           0       -1.422201    0.569079   -0.663960
      4          1           0       -2.134019    0.024120   -1.082422
      5          8           0        0.538438    1.164365    0.907359
      6          8           0       -0.849185   -0.942494    1.552143
      7         17           0        1.325530    2.313312   -0.226795
      8         17           0        1.919742   -1.972966   -0.262353
      9          8           0       -3.710274   -0.324102   -0.448735
     10          1           0       -3.829733    0.623686   -0.285949
     11          1           0       -4.553300   -0.789099   -0.365476
 ---------------------------------------------------------------------
 Rotational constants (GHZ):      1.0913503      0.8572171      0.5683692
 Standard basis: 6-311G (5D, 7F)
 There are   137 symmetry adapted cartesian basis functions of A   symmetry.
 There are   137 symmetry adapted basis functions of A   symmetry.
   137 basis functions,   271 primitive gaussians,   137 cartesian basis functions
    46 alpha electrons       46 beta electrons
       nuclear repulsion energy       683.9523648637 Hartrees.



 Warning!  P  atom    1 may be hypervalent but has no d functions.



 NAtoms=   11 NActive=   11 NUniq=   11 SFac= 1.00D+00 NAtFMM=   60 NAOKFM=F Big=F
 Integral buffers will be    131072 words long.
 Raffenetti 2 integral format.
 Two-electron integral symmetry is turned on.
 One-electron integrals computed using PRISM.
 NBasis=   137 RedAO= T EigKep=  1.17D-02  NBF=   137
 NBsUse=   137 1.00D-06 EigRej= -1.00D+00 NBFU=   137
 Initial guess from the checkpoint file:  "HCl2PO4-h2o.chk"
 B after Tr=     0.000000    0.000000    0.000000
         Rot=    0.999956    0.004816   -0.005164   -0.006188 Ang=   1.08 deg.
 ExpMin= 6.85D-02 ExpMax= 1.06D+05 ExpMxC= 3.62D+03 IAcc=2 IRadAn=         4 AccDes= 0.00D+00
 Harris functional with IExCor=  402 and IRadAn=       4 diagonalized for initial guess.
 HarFok:  IExCor=  402 AccDes= 0.00D+00 IRadAn=         4 IDoV= 1 UseB2=F ITyADJ=14
 ICtDFT=  3500011 ScaDFX=  1.000000  1.000000  1.000000  1.000000
 FoFCou: FMM=F IPFlag=           0 FMFlag=      100000 FMFlg1=           0
         NFxFlg=           0 DoJE=T BraDBF=F KetDBF=T FulRan=T
         wScrn=  0.000000 ICntrl=     500 IOpCl=  0 I1Cent=   200000004 NGrid=           0
         NMat0=    1 NMatS0=      1 NMatT0=    0 NMatD0=    1 NMtDS0=    0 NMtDT0=    0
 Petite list used in FoFCou.
 Keep R1 ints in memory in canonical form, NReq=46075568.
 Requested convergence on RMS density matrix=1.00D-08 within 128 cycles.
 Requested convergence on MAX density matrix=1.00D-06.
 Requested convergence on             energy=1.00D-06.
 No special actions if energy rises.
 Integral accuracy reduced to 1.0D-05 until final iterations.
 Initial convergence to 1.0D-05 achieved.  Increase integral accuracy.
 SCF Done:  E(RB3LYP) =  -1639.53284096     A.U. after   16 cycles
            NFock= 16  Conv=0.42D-08     -V/T= 2.0019
 Calling FoFJK, ICntrl=      2127 FMM=F ISym2X=0 I1Cent= 0 IOpClX= 0 NMat=1 NMatS=1 NMatT=0.
 ***** Axes restored to original set *****
 -------------------------------------------------------------------
 Center     Atomic                   Forces (Hartrees/Bohr)
 Number     Number              X              Y              Z
 -------------------------------------------------------------------
      1       15           0.007714792    0.002097765   -0.014816821
      2        8          -0.002397718   -0.005680820   -0.024536128
      3        8           0.008030153   -0.003712976   -0.017124877
      4        1          -0.002273128    0.003289973    0.007151148
      5        8           0.009506565   -0.004888819    0.021954223
      6        8          -0.020319519    0.022778871    0.032378961
      7       17           0.008933028   -0.009887457   -0.009060532
      8       17          -0.011103230   -0.009420107    0.007392009
      9        8           0.004555514    0.002393200   -0.006531870
     10        1           0.001807409    0.003220397    0.004500860
     11        1          -0.004453865   -0.000190028   -0.001306973
 -------------------------------------------------------------------
 Cartesian Forces:  Max     0.032378961 RMS     0.011793062

 GradGradGradGradGradGradGradGradGradGradGradGradGradGradGradGradGradGrad
 Berny optimization.
 Using GEDIIS/GDIIS optimizer.
 FormGI is forming the generalized inverse of G from B-inverse, IUseBI=4.
 Internal  Forces:  Max     0.044431368 RMS     0.011528572
 Search for a local minimum.
 Step number   2 out of a maximum of   46
 All quantities printed in internal units (Hartrees-Bohrs-Radians)
 Mixed Optimization -- RFO/linear search
 Update second derivatives using D2CorX and points    1    2
 DE= -3.07D-02 DEPred=-2.91D-02 R= 1.05D+00
 TightC=F SS=  1.41D+00  RLast= 3.21D-01 DXNew= 5.0454D-01 9.6290D-01
 Trust test= 1.05D+00 RLast= 3.21D-01 DXMaxT set to 5.05D-01
 ITU=  1  0
 Use linear search instead of GDIIS.
     Eigenvalues ---    0.00231   0.00988   0.01491   0.02873   0.03143
     Eigenvalues ---    0.03507   0.07923   0.12691   0.13061   0.13309
     Eigenvalues ---    0.15345   0.15860   0.16537   0.20625   0.21681
     Eigenvalues ---    0.23227   0.25000   0.26187   0.31230   0.32208
     Eigenvalues ---    0.40673   0.46231   0.52536   0.55239   0.55473
     Eigenvalues ---    0.56190   0.83732
 RFO step:  Lambda=-1.19987070D-02 EMin= 2.30533790D-03
 Quartic linear search produced a step of  0.84167.
 Iteration  1 RMS(Cart)=  0.14936802 RMS(Int)=  0.08297558
 Iteration  2 RMS(Cart)=  0.07048492 RMS(Int)=  0.04039496
 Iteration  3 RMS(Cart)=  0.05360563 RMS(Int)=  0.01276033
 Iteration  4 RMS(Cart)=  0.00760488 RMS(Int)=  0.01106943
 Iteration  5 RMS(Cart)=  0.00015943 RMS(Int)=  0.01106880
 Iteration  6 RMS(Cart)=  0.00000494 RMS(Int)=  0.01106880
 Iteration  7 RMS(Cart)=  0.00000030 RMS(Int)=  0.01106880
 Variable       Old X    -DE/DX   Delta X   Delta X   Delta X     New X
                                 (Linear)    (Quad)   (Total)
    R1        3.19854   0.02644   0.08238   0.01934   0.10173   3.30027
    R2        3.08302   0.01596   0.06154  -0.01129   0.05024   3.13326
    R3        3.15738   0.02689   0.08017   0.01573   0.09590   3.25328
    R4        2.85285   0.04443   0.07509   0.00720   0.08229   2.93514
    R5        3.38510   0.01632   0.08889  -0.00259   0.08630   3.47140
    R6        1.86956   0.00401   0.03874  -0.02789   0.01086   1.88042
    R7        3.27713   0.00464   0.08699   0.01901   0.10600   3.38313
    R8        3.39410   0.01608   0.08443   0.00293   0.08736   3.48146
    R9        1.83125   0.00256   0.01441  -0.00706   0.00735   1.83860
   R10        1.82615   0.00149   0.01011  -0.00592   0.00419   1.83034
    A1        1.69296  -0.00342  -0.00571  -0.02284  -0.02857   1.66439
    A2        1.85893   0.00143  -0.00448   0.01202   0.00735   1.86628
    A3        2.04388   0.00147  -0.00272   0.01829   0.01559   2.05947
    A4        1.79540  -0.00100  -0.00372  -0.00965  -0.01337   1.78204
    A5        2.12290   0.00323   0.01968   0.01087   0.03058   2.15348
    A6        1.91649  -0.00195  -0.00492  -0.01050  -0.01540   1.90109
    A7        2.08589  -0.00177   0.04328  -0.05622  -0.01294   2.07295
    A8        2.08903   0.00372   0.07618  -0.03516   0.04102   2.13005
    A9        2.22688   0.01865   0.07119   0.05654   0.12773   2.35461
   A10        2.13219  -0.00292   0.03800  -0.05879  -0.02079   2.11139
   A11        1.54783   0.00730   0.03363   0.09450   0.10568   1.65351
   A12        2.74152  -0.00659  -0.02712  -0.02374  -0.07300   2.66852
   A13        1.92688   0.00013   0.01326   0.04352   0.03426   1.96114
    D1       -3.10598  -0.00141  -0.00806  -0.00723  -0.01527  -3.12125
    D2        1.33257   0.00053  -0.00114   0.00832   0.00723   1.33979
    D3       -0.81907   0.00093   0.01095  -0.00016   0.01073  -0.80834
    D4        1.32070  -0.00065  -0.00447  -0.02606  -0.03072   1.28999
    D5       -3.06414  -0.00033  -0.01160  -0.02195  -0.03332  -3.09746
    D6       -0.91221  -0.00166  -0.00829  -0.03738  -0.04572  -0.95793
    D7        0.86851  -0.00139   0.00311  -0.00397  -0.00085   0.86767
    D8       -0.90168   0.00225   0.01196   0.02061   0.03261  -0.86907
    D9        3.09771   0.00015  -0.00668   0.02021   0.01348   3.11119
   D10        1.51843  -0.00110  -0.00097  -0.07382  -0.07479   1.44364
   D11        0.87613  -0.00660  -0.08972  -0.58366  -0.65153   0.22460
   D12       -2.83717   0.00166   0.01596  -0.06665  -0.07255  -2.90972
   D13        2.91481  -0.00065   0.01742   0.16874   0.23036  -3.13801
         Item               Value     Threshold  Converged?
 Maximum Force            0.044431     0.000450     NO 
 RMS     Force            0.011529     0.000300     NO 
 Maximum Displacement     0.806337     0.001800     NO 
 RMS     Displacement     0.244772     0.001200     NO 
 Predicted change in Energy=-9.176530D-03
 GradGradGradGradGradGradGradGradGradGradGradGradGradGradGradGradGradGrad

                          Input orientation:                          
 ---------------------------------------------------------------------
 Center     Atomic      Atomic             Coordinates (Angstroms)
 Number     Number       Type             X           Y           Z
 ---------------------------------------------------------------------
      1         15           0       -0.032519    0.040456    0.119874
      2          8           0       -1.058686   -0.923653   -0.913319
      3          8           0        0.836357    0.721854   -1.117010
      4          1           0        0.453431    1.427382   -1.705037
      5          8           0        1.118412   -1.029656    0.822721
      6          8           0       -0.705734    0.868174    1.248648
      7         17           0        2.079850   -2.205647   -0.219765
      8         17           0       -2.358295   -1.968225   -0.142345
      9          8           0        0.253359    3.202319   -1.583969
     10          1           0        0.845955    3.297969   -0.818263
     11          1           0       -0.119279    4.049455   -1.869700
 ---------------------------------------------------------------------
                    Distance matrix (angstroms):
                    1          2          3          4          5
     1  P    0.000000
     2  O    1.746429   0.000000
     3  O    1.658051   2.518011   0.000000
     4  H    2.343077   2.905285   0.995076   0.000000
     5  O    1.721563   2.786544   2.628670   3.587311   0.000000
     6  O    1.553211   2.830074   2.827684   3.221899   2.666586
     7  Cl   3.102006   3.460482   3.304782   4.248549   1.842307
     8  Cl   3.084282   1.836985   4.288625   4.677388   3.728237
     9  O    3.603080   4.381196   2.590491   1.790276   4.944703
    10  H    3.501887   4.632363   2.593397   2.107022   4.636314
    11  H    4.476383   5.150627   3.542980   2.688936   5.880338
                    6          7          8          9         10
     6  O    0.000000
     7  Cl   4.400465   0.000000
     8  Cl   3.565246   4.445165   0.000000
     9  O    3.793655   5.868834   5.969384   0.000000
    10  H    3.547361   5.671903   6.201362   0.972947   0.000000
    11  H    4.493170   6.832624   6.649017   0.968576   1.613049
                   11
    11  H    0.000000
 Stoichiometry    Cl2H3O5P
 Framework group  C1[X(Cl2H3O5P)]
 Deg. of freedom    27
 Full point group                 C1      NOp   1
 Largest Abelian subgroup         C1      NOp   1
 Largest concise Abelian subgroup C1      NOp   1
                         Standard orientation:                         
 ---------------------------------------------------------------------
 Center     Atomic      Atomic             Coordinates (Angstroms)
 Number     Number       Type             X           Y           Z
 ---------------------------------------------------------------------
      1         15           0       -0.373352   -0.084115    0.436384
      2          8           0        0.468502   -0.982848   -0.801993
      3          8           0       -1.395519    0.698894   -0.608224
      4          1           0       -2.157833    0.234702   -1.048202
      5          8           0        0.676077    1.186360    0.934750
      6          8           0       -0.861976   -0.855876    1.692607
      7         17           0        1.486745    2.286270   -0.301013
      8         17           0        1.797016   -2.148053   -0.300135
      9          8           0       -3.832128   -0.179745   -0.568558
     10          1           0       -3.835368    0.394800    0.216625
     11          1           0       -4.670101   -0.651729   -0.683332
 ---------------------------------------------------------------------
 Rotational constants (GHZ):      1.0149908      0.8166769      0.5452464
 Standard basis: 6-311G (5D, 7F)
 There are   137 symmetry adapted cartesian basis functions of A   symmetry.
 There are   137 symmetry adapted basis functions of A   symmetry.
   137 basis functions,   271 primitive gaussians,   137 cartesian basis functions
    46 alpha electrons       46 beta electrons
       nuclear repulsion energy       666.7564292111 Hartrees.



 Warning!  P  atom    1 may be hypervalent but has no d functions.



 NAtoms=   11 NActive=   11 NUniq=   11 SFac= 1.00D+00 NAtFMM=   60 NAOKFM=F Big=F
 Integral buffers will be    131072 words long.
 Raffenetti 2 integral format.
 Two-electron integral symmetry is turned on.
 One-electron integrals computed using PRISM.
 NBasis=   137 RedAO= T EigKep=  1.31D-02  NBF=   137
 NBsUse=   137 1.00D-06 EigRej= -1.00D+00 NBFU=   137
 Initial guess from the checkpoint file:  "HCl2PO4-h2o.chk"
 B after Tr=     0.000000    0.000000    0.000000
         Rot=    0.999572    0.005587   -0.005485    0.028171 Ang=   3.35 deg.
 ExpMin= 6.85D-02 ExpMax= 1.06D+05 ExpMxC= 3.62D+03 IAcc=2 IRadAn=         4 AccDes= 0.00D+00
 Harris functional with IExCor=  402 and IRadAn=       4 diagonalized for initial guess.
 HarFok:  IExCor=  402 AccDes= 0.00D+00 IRadAn=         4 IDoV= 1 UseB2=F ITyADJ=14
 ICtDFT=  3500011 ScaDFX=  1.000000  1.000000  1.000000  1.000000
 FoFCou: FMM=F IPFlag=           0 FMFlag=      100000 FMFlg1=           0
         NFxFlg=           0 DoJE=T BraDBF=F KetDBF=T FulRan=T
         wScrn=  0.000000 ICntrl=     500 IOpCl=  0 I1Cent=   200000004 NGrid=           0
         NMat0=    1 NMatS0=      1 NMatT0=    0 NMatD0=    1 NMtDS0=    0 NMtDT0=    0
 Petite list used in FoFCou.
 Keep R1 ints in memory in canonical form, NReq=46075568.
 Requested convergence on RMS density matrix=1.00D-08 within 128 cycles.
 Requested convergence on MAX density matrix=1.00D-06.
 Requested convergence on             energy=1.00D-06.
 No special actions if energy rises.
 Integral accuracy reduced to 1.0D-05 until final iterations.
 Initial convergence to 1.0D-05 achieved.  Increase integral accuracy.
 SCF Done:  E(RB3LYP) =  -1639.54450478     A.U. after   17 cycles
            NFock= 17  Conv=0.44D-08     -V/T= 2.0022
 Calling FoFJK, ICntrl=      2127 FMM=F ISym2X=0 I1Cent= 0 IOpClX= 0 NMat=1 NMatS=1 NMatT=0.
 ***** Axes restored to original set *****
 -------------------------------------------------------------------
 Center     Atomic                   Forces (Hartrees/Bohr)
 Number     Number              X              Y              Z
 -------------------------------------------------------------------
      1       15           0.000404441   -0.000412542   -0.005863477
      2        8          -0.003022235   -0.002084973   -0.005268944
      3        8          -0.000320747   -0.000768494   -0.003885692
      4        1          -0.000438879    0.003982935    0.006532629
      5        8           0.003701279   -0.003294670    0.005567619
      6        8          -0.000579428    0.003465646    0.003016727
      7       17          -0.001434565    0.001614803   -0.000998132
      8       17           0.000961371    0.000901782    0.001260014
      9        8           0.003377490   -0.005233528    0.002002702
     10        1          -0.002914406    0.004453967   -0.002596433
     11        1           0.000265678   -0.002624926    0.000232989
 -------------------------------------------------------------------
 Cartesian Forces:  Max     0.006532629 RMS     0.003120623

 GradGradGradGradGradGradGradGradGradGradGradGradGradGradGradGradGradGrad
 Berny optimization.
 Using GEDIIS/GDIIS optimizer.
 FormGI is forming the generalized inverse of G from B-inverse, IUseBI=4.
 Internal  Forces:  Max     0.010085385 RMS     0.003328368
 Search for a local minimum.
 Step number   3 out of a maximum of   46
 All quantities printed in internal units (Hartrees-Bohrs-Radians)
 Mixed Optimization -- RFO/linear search
 Update second derivatives using D2CorX and points    2    3
 DE= -1.17D-02 DEPred=-9.18D-03 R= 1.27D+00
 TightC=F SS=  1.41D+00  RLast= 7.67D-01 DXNew= 8.4853D-01 2.3010D+00
 Trust test= 1.27D+00 RLast= 7.67D-01 DXMaxT set to 8.49D-01
 ITU=  1  1  0
 Use linear search instead of GDIIS.
     Eigenvalues ---    0.00259   0.00703   0.01486   0.02873   0.03137
     Eigenvalues ---    0.03460   0.07687   0.11347   0.12486   0.13020
     Eigenvalues ---    0.15782   0.16026   0.16629   0.20078   0.20603
     Eigenvalues ---    0.22092   0.25001   0.26168   0.31410   0.32499
     Eigenvalues ---    0.39685   0.46125   0.52685   0.55208   0.55474
     Eigenvalues ---    0.56775   0.83587
 RFO step:  Lambda=-1.98020032D-03 EMin= 2.58643211D-03
 Quartic linear search produced a step of  0.18896.
 Iteration  1 RMS(Cart)=  0.11590048 RMS(Int)=  0.01016042
 Iteration  2 RMS(Cart)=  0.01176826 RMS(Int)=  0.00279287
 Iteration  3 RMS(Cart)=  0.00013606 RMS(Int)=  0.00279089
 Iteration  4 RMS(Cart)=  0.00000103 RMS(Int)=  0.00279089
 Iteration  5 RMS(Cart)=  0.00000001 RMS(Int)=  0.00279089
 Variable       Old X    -DE/DX   Delta X   Delta X   Delta X     New X
                                 (Linear)    (Quad)   (Total)
    R1        3.30027   0.00425   0.01922   0.00985   0.02907   3.32935
    R2        3.13326  -0.00180   0.00949  -0.00297   0.00652   3.13978
    R3        3.25328   0.00443   0.01812   0.00969   0.02781   3.28109
    R4        2.93514   0.00429   0.01555   0.00436   0.01991   2.95505
    R5        3.47140  -0.00067   0.01631  -0.00118   0.01513   3.48653
    R6        1.88042  -0.00336   0.00205  -0.00470  -0.00264   1.87778
    R7        3.38313  -0.00348   0.02003  -0.04499  -0.02496   3.35817
    R8        3.48146  -0.00122   0.01651  -0.00383   0.01267   3.49413
    R9        1.83860  -0.00338   0.00139  -0.00654  -0.00515   1.83345
   R10        1.83034  -0.00247   0.00079  -0.00471  -0.00392   1.82643
    A1        1.66439   0.00042  -0.00540   0.00561   0.00019   1.66458
    A2        1.86628   0.00101   0.00139   0.00787   0.00920   1.87548
    A3        2.05947   0.00067   0.00295   0.00263   0.00558   2.06505
    A4        1.78204   0.00132  -0.00253   0.00823   0.00568   1.78772
    A5        2.15348  -0.00224   0.00578  -0.01729  -0.01151   2.14197
    A6        1.90109  -0.00067  -0.00291  -0.00321  -0.00613   1.89496
    A7        2.07295  -0.00584  -0.00244  -0.02127  -0.02372   2.04923
    A8        2.13005  -0.00526   0.00775  -0.03199  -0.02424   2.10580
    A9        2.35461   0.01009   0.02414   0.04351   0.06764   2.42226
   A10        2.11139  -0.00706  -0.00393  -0.02688  -0.03081   2.08058
   A11        1.65351   0.00652   0.01997   0.04431   0.05792   1.71143
   A12        2.66852  -0.00410  -0.01379  -0.02790  -0.04663   2.62189
   A13        1.96114  -0.00242   0.00647  -0.01655  -0.01676   1.94438
    D1       -3.12125   0.00127  -0.00289   0.00879   0.00591  -3.11534
    D2        1.33979  -0.00045   0.00137  -0.00321  -0.00183   1.33797
    D3       -0.80834  -0.00087   0.00203  -0.00735  -0.00535  -0.81369
    D4        1.28999  -0.00124  -0.00580  -0.02681  -0.03265   1.25734
    D5       -3.09746   0.00014  -0.00630  -0.01580  -0.02205  -3.11951
    D6       -0.95793  -0.00109  -0.00864  -0.02433  -0.03298  -0.99091
    D7        0.86767   0.00024  -0.00016   0.00823   0.00810   0.87577
    D8       -0.86907  -0.00094   0.00616  -0.00277   0.00339  -0.86569
    D9        3.11119   0.00132   0.00255   0.01475   0.01727   3.12846
   D10        1.44364  -0.00106  -0.01413  -0.06622  -0.08035   1.36329
   D11        0.22460  -0.00008  -0.12311  -0.02565  -0.14291   0.08169
   D12       -2.90972   0.00015  -0.01371   0.01361  -0.00594  -2.91567
   D13       -3.13801   0.00014   0.04353   0.01951   0.07317  -3.06484
         Item               Value     Threshold  Converged?
 Maximum Force            0.010085     0.000450     NO 
 RMS     Force            0.003328     0.000300     NO 
 Maximum Displacement     0.401678     0.001800     NO 
 RMS     Displacement     0.121348     0.001200     NO 
 Predicted change in Energy=-1.161606D-03
 GradGradGradGradGradGradGradGradGradGradGradGradGradGradGradGradGradGrad

                          Input orientation:                          
 ---------------------------------------------------------------------
 Center     Atomic      Atomic             Coordinates (Angstroms)
 Number     Number       Type             X           Y           Z
 ---------------------------------------------------------------------
      1         15           0        0.023816    0.041305    0.127334
      2          8           0       -1.045301   -0.859178   -0.945097
      3          8           0        0.936399    0.710848   -1.089010
      4          1           0        0.561669    1.425593   -1.668761
      5          8           0        1.126179   -1.095849    0.838907
      6          8           0       -0.618293    0.894280    1.269888
      7         17           0        2.038141   -2.274423   -0.255689
      8         17           0       -2.397288   -1.843682   -0.166072
      9          8           0        0.237811    3.171480   -1.598236
     10          1           0        0.633396    3.348219   -0.730132
     11          1           0       -0.183680    3.961834   -1.961297
 ---------------------------------------------------------------------
                    Distance matrix (angstroms):
                    1          2          3          4          5
     1  P    0.000000
     2  O    1.761814   0.000000
     3  O    1.661502   2.532356   0.000000
     4  H    2.330558   2.885520   0.993677   0.000000
     5  O    1.736278   2.820285   2.648969   3.600659   0.000000
     6  O    1.563745   2.857115   2.831097   3.210960   2.681332
     7  Cl   3.093026   3.462053   3.289393   4.226922   1.849014
     8  Cl   3.082370   1.844992   4.300105   4.658504   3.739526
     9  O    3.580695   4.280090   2.608073   1.777070   4.993892
    10  H    3.470233   4.535022   2.678867   2.140715   4.738614
    11  H    4.447019   5.001721   3.547445   2.659631   5.927650
                    6          7          8          9         10
     6  O    0.000000
     7  Cl   4.407347   0.000000
     8  Cl   3.566965   4.457196   0.000000
     9  O    3.760942   5.890796   5.843516   0.000000
    10  H    3.404206   5.814853   6.038132   0.970221   0.000000
    11  H    4.476531   6.836409   6.467373   0.966503   1.599970
                   11
    11  H    0.000000
 Stoichiometry    Cl2H3O5P
 Framework group  C1[X(Cl2H3O5P)]
 Deg. of freedom    27
 Full point group                 C1      NOp   1
 Largest Abelian subgroup         C1      NOp   1
 Largest concise Abelian subgroup C1      NOp   1
                         Standard orientation:                         
 ---------------------------------------------------------------------
 Center     Atomic      Atomic             Coordinates (Angstroms)
 Number     Number       Type             X           Y           Z
 ---------------------------------------------------------------------
      1         15           0       -0.371208   -0.012082    0.449948
      2          8           0        0.343481   -1.009779   -0.814097
      3          8           0       -1.321658    0.883391   -0.577359
      4          1           0       -2.120062    0.479803   -1.009867
      5          8           0        0.829992    1.139112    0.946467
      6          8           0       -0.937809   -0.721269    1.723258
      7         17           0        1.710911    2.135013   -0.338452
      8         17           0        1.534483   -2.318445   -0.291696
      9          8           0       -3.795523    0.057710   -0.594359
     10          1           0       -3.810380    0.427137    0.302654
     11          1           0       -4.620996   -0.400677   -0.800765
 ---------------------------------------------------------------------
 Rotational constants (GHZ):      1.0023618      0.8251691      0.5493403
 Standard basis: 6-311G (5D, 7F)
 There are   137 symmetry adapted cartesian basis functions of A   symmetry.
 There are   137 symmetry adapted basis functions of A   symmetry.
   137 basis functions,   271 primitive gaussians,   137 cartesian basis functions
    46 alpha electrons       46 beta electrons
       nuclear repulsion energy       665.5667845350 Hartrees.



 Warning!  P  atom    1 may be hypervalent but has no d functions.



 NAtoms=   11 NActive=   11 NUniq=   11 SFac= 1.00D+00 NAtFMM=   60 NAOKFM=F Big=F
 Integral buffers will be    131072 words long.
 Raffenetti 2 integral format.
 Two-electron integral symmetry is turned on.
 One-electron integrals computed using PRISM.
 NBasis=   137 RedAO= T EigKep=  1.33D-02  NBF=   137
 NBsUse=   137 1.00D-06 EigRej= -1.00D+00 NBFU=   137
 Initial guess from the checkpoint file:  "HCl2PO4-h2o.chk"
 B after Tr=     0.000000    0.000000    0.000000
         Rot=    0.998932    0.005709   -0.001409    0.045818 Ang=   5.30 deg.
 ExpMin= 6.85D-02 ExpMax= 1.06D+05 ExpMxC= 3.62D+03 IAcc=2 IRadAn=         4 AccDes= 0.00D+00
 Harris functional with IExCor=  402 and IRadAn=       4 diagonalized for initial guess.
 HarFok:  IExCor=  402 AccDes= 0.00D+00 IRadAn=         4 IDoV= 1 UseB2=F ITyADJ=14
 ICtDFT=  3500011 ScaDFX=  1.000000  1.000000  1.000000  1.000000
 FoFCou: FMM=F IPFlag=           0 FMFlag=      100000 FMFlg1=           0
         NFxFlg=           0 DoJE=T BraDBF=F KetDBF=T FulRan=T
         wScrn=  0.000000 ICntrl=     500 IOpCl=  0 I1Cent=   200000004 NGrid=           0
         NMat0=    1 NMatS0=      1 NMatT0=    0 NMatD0=    1 NMtDS0=    0 NMtDT0=    0
 Petite list used in FoFCou.
 Keep R1 ints in memory in canonical form, NReq=46075568.
 Requested convergence on RMS density matrix=1.00D-08 within 128 cycles.
 Requested convergence on MAX density matrix=1.00D-06.
 Requested convergence on             energy=1.00D-06.
 No special actions if energy rises.
 Integral accuracy reduced to 1.0D-05 until final iterations.
 Initial convergence to 1.0D-05 achieved.  Increase integral accuracy.
 SCF Done:  E(RB3LYP) =  -1639.54649755     A.U. after   16 cycles
            NFock= 16  Conv=0.30D-08     -V/T= 2.0022
 Calling FoFJK, ICntrl=      2127 FMM=F ISym2X=0 I1Cent= 0 IOpClX= 0 NMat=1 NMatS=1 NMatT=0.
 ***** Axes restored to original set *****
 -------------------------------------------------------------------
 Center     Atomic                   Forces (Hartrees/Bohr)
 Number     Number              X              Y              Z
 -------------------------------------------------------------------
      1       15          -0.000277193    0.001368284   -0.001033162
      2        8          -0.001625403   -0.001058034    0.000227438
      3        8          -0.001410625   -0.003391870   -0.001238929
      4        1          -0.000228706    0.006284673    0.004011541
      5        8           0.000822217   -0.001809365    0.000302886
      6        8           0.001819436   -0.000974557   -0.003075582
      7       17          -0.001587019    0.002005472    0.000648617
      8       17           0.002078810    0.001706219   -0.000282253
      9        8           0.002055631   -0.005718229    0.002810526
     10        1          -0.000612834    0.002910595   -0.000575146
     11        1          -0.001034314   -0.001323186   -0.001795936
 -------------------------------------------------------------------
 Cartesian Forces:  Max     0.006284673 RMS     0.002266904

 GradGradGradGradGradGradGradGradGradGradGradGradGradGradGradGradGradGrad
 Berny optimization.
 Using GEDIIS/GDIIS optimizer.
 FormGI is forming the generalized inverse of G from B-inverse, IUseBI=4.
 Internal  Forces:  Max     0.008439501 RMS     0.002565320
 Search for a local minimum.
 Step number   4 out of a maximum of   46
 All quantities printed in internal units (Hartrees-Bohrs-Radians)
 Mixed Optimization -- RFO/linear search
 Update second derivatives using D2CorX and points    3    4
 DE= -1.99D-03 DEPred=-1.16D-03 R= 1.72D+00
 TightC=F SS=  1.41D+00  RLast= 2.26D-01 DXNew= 1.4270D+00 6.7931D-01
 Trust test= 1.72D+00 RLast= 2.26D-01 DXMaxT set to 8.49D-01
 ITU=  1  1  1  0
 Use linear search instead of GDIIS.
     Eigenvalues ---    0.00247   0.00654   0.01183   0.02871   0.03095
     Eigenvalues ---    0.03258   0.05856   0.08246   0.12481   0.13168
     Eigenvalues ---    0.15286   0.15858   0.16367   0.20205   0.20829
     Eigenvalues ---    0.22089   0.25013   0.27047   0.30892   0.31998
     Eigenvalues ---    0.42609   0.46451   0.52632   0.55232   0.55473
     Eigenvalues ---    0.57636   0.88119
 RFO step:  Lambda=-2.19102250D-03 EMin= 2.46669182D-03
 Quartic linear search produced a step of  1.24148.
 Iteration  1 RMS(Cart)=  0.18965596 RMS(Int)=  0.02892058
 Iteration  2 RMS(Cart)=  0.09494434 RMS(Int)=  0.00631078
 Iteration  3 RMS(Cart)=  0.00675516 RMS(Int)=  0.00241103
 Iteration  4 RMS(Cart)=  0.00004669 RMS(Int)=  0.00241075
 Iteration  5 RMS(Cart)=  0.00000025 RMS(Int)=  0.00241075
 Variable       Old X    -DE/DX   Delta X   Delta X   Delta X     New X
                                 (Linear)    (Quad)   (Total)
    R1        3.32935  -0.00057   0.03609   0.00532   0.04141   3.37076
    R2        3.13978  -0.00354   0.00809  -0.00467   0.00342   3.14320
    R3        3.28109  -0.00022   0.03452   0.00680   0.04132   3.32241
    R4        2.95505  -0.00353   0.02471  -0.00009   0.02462   2.97967
    R5        3.48653  -0.00255   0.01878  -0.00309   0.01569   3.50222
    R6        1.87778  -0.00111  -0.00328   0.00312  -0.00016   1.87762
    R7        3.35817  -0.00411  -0.03098  -0.07121  -0.10219   3.25598
    R8        3.49413  -0.00244   0.01573  -0.00232   0.01342   3.50755
    R9        1.83345  -0.00024  -0.00639   0.00379  -0.00260   1.83085
   R10        1.82643   0.00005  -0.00486   0.00356  -0.00130   1.82512
    A1        1.66458   0.00093   0.00024   0.00666   0.00675   1.67133
    A2        1.87548  -0.00032   0.01143  -0.00416   0.00714   1.88262
    A3        2.06505  -0.00005   0.00693  -0.00405   0.00282   2.06787
    A4        1.78772   0.00117   0.00706   0.01114   0.01813   1.80585
    A5        2.14197  -0.00199  -0.01429  -0.01424  -0.02852   2.11345
    A6        1.89496   0.00047  -0.00762   0.00631  -0.00130   1.89366
    A7        2.04923  -0.00309  -0.02945  -0.01077  -0.04022   2.00901
    A8        2.10580  -0.00487  -0.03010  -0.03802  -0.06812   2.03768
    A9        2.42226   0.00844   0.08398   0.06768   0.15166   2.57391
   A10        2.08058  -0.00345  -0.03825  -0.01244  -0.05069   2.02989
   A11        1.71143   0.00518   0.07191   0.05735   0.12534   1.83677
   A12        2.62189  -0.00481  -0.05789  -0.05846  -0.11818   2.50371
   A13        1.94438  -0.00036  -0.02081   0.00445  -0.02087   1.92351
    D1       -3.11534   0.00121   0.00734   0.01702   0.02443  -3.09091
    D2        1.33797  -0.00030  -0.00227   0.00359   0.00132   1.33929
    D3       -0.81369  -0.00063  -0.00664   0.00157  -0.00513  -0.81882
    D4        1.25734  -0.00070  -0.04053  -0.02200  -0.06254   1.19480
    D5       -3.11951  -0.00058  -0.02738  -0.02259  -0.04986   3.11382
    D6       -0.99091  -0.00021  -0.04094  -0.01345  -0.05448  -1.04538
    D7        0.87577   0.00053   0.01006   0.00786   0.01801   0.89377
    D8       -0.86569  -0.00081   0.00420  -0.00219   0.00195  -0.86374
    D9        3.12846   0.00057   0.02144   0.00419   0.02561  -3.12911
   D10        1.36329  -0.00188  -0.09975  -0.18683  -0.28658   1.07670
   D11        0.08169   0.00059  -0.17742   0.11569  -0.05531   0.02638
   D12       -2.91567  -0.00011  -0.00738   0.06488   0.05108  -2.86459
   D13       -3.06484   0.00026   0.09083  -0.01891   0.08129  -2.98356
         Item               Value     Threshold  Converged?
 Maximum Force            0.008440     0.000450     NO 
 RMS     Force            0.002565     0.000300     NO 
 Maximum Displacement     0.839079     0.001800     NO 
 RMS     Displacement     0.271340     0.001200     NO 
 Predicted change in Energy=-2.375220D-03
 GradGradGradGradGradGradGradGradGradGradGradGradGradGradGradGradGradGrad

                          Input orientation:                          
 ---------------------------------------------------------------------
 Center     Atomic      Atomic             Coordinates (Angstroms)
 Number     Number       Type             X           Y           Z
 ---------------------------------------------------------------------
      1         15           0        0.153833    0.061718    0.148021
      2          8           0       -0.987035   -0.673054   -1.009655
      3          8           0        1.162633    0.713572   -1.002638
      4          1           0        0.797026    1.460339   -1.546601
      5          8           0        1.116033   -1.230840    0.851258
      6          8           0       -0.426646    0.946191    1.317195
      7         17           0        1.924273   -2.398324   -0.344104
      8         17           0       -2.449626   -1.516082   -0.244908
      9          8           0        0.161516    3.061600   -1.574759
     10          1           0        0.189375    3.362864   -0.654365
     11          1           0       -0.328532    3.692444   -2.117609
 ---------------------------------------------------------------------
                    Distance matrix (angstroms):
                    1          2          3          4          5
     1  P    0.000000
     2  O    1.783728   0.000000
     3  O    1.663312   2.558095   0.000000
     4  H    2.289450   2.832410   0.993592   0.000000
     5  O    1.758146   2.863044   2.686976   3.618554   0.000000
     6  O    1.576774   2.889675   2.821621   3.156430   2.708582
     7  Cl   3.070579   3.448946   3.270728   4.195946   1.856114
     8  Cl   3.069502   1.853296   4.312067   4.592846   3.741238
     9  O    3.459382   3.947930   2.615873   1.722993   5.022121
    10  H    3.397448   4.218863   2.843813   2.187448   4.922165
    11  H    4.306730   4.551786   3.512892   2.564220   5.927871
                    6          7          8          9         10
     6  O    0.000000
     7  Cl   4.412767   0.000000
     8  Cl   3.549000   4.463091   0.000000
     9  O    3.631018   5.867929   5.435231   0.000000
    10  H    3.179126   6.024734   5.562022   0.968845   0.000000
    11  H    4.398797   6.731857   5.927461   0.965814   1.586800
                   11
    11  H    0.000000
 Stoichiometry    Cl2H3O5P
 Framework group  C1[X(Cl2H3O5P)]
 Deg. of freedom    27
 Full point group                 C1      NOp   1
 Largest Abelian subgroup         C1      NOp   1
 Largest concise Abelian subgroup C1      NOp   1
                         Standard orientation:                         
 ---------------------------------------------------------------------
 Center     Atomic      Atomic             Coordinates (Angstroms)
 Number     Number       Type             X           Y           Z
 ---------------------------------------------------------------------
      1         15           0       -0.328043    0.178087    0.480810
      2          8           0       -0.024587   -1.003683   -0.820351
      3          8           0       -0.991480    1.343338   -0.503391
      4          1           0       -1.876310    1.137890   -0.905996
      5          8           0        1.217732    0.871100    0.951329
      6          8           0       -1.073895   -0.310431    1.781298
      7         17           0        2.272445    1.538110   -0.422657
      8         17           0        0.675177   -2.626256   -0.261519
      9          8           0       -3.542030    0.780715   -0.648105
     10          1           0       -3.662434    0.807593    0.312854
     11          1           0       -4.336101    0.433375   -1.074253
 ---------------------------------------------------------------------
 Rotational constants (GHZ):      1.0124638      0.8436893      0.5684013
 Standard basis: 6-311G (5D, 7F)
 There are   137 symmetry adapted cartesian basis functions of A   symmetry.
 There are   137 symmetry adapted basis functions of A   symmetry.
   137 basis functions,   271 primitive gaussians,   137 cartesian basis functions
    46 alpha electrons       46 beta electrons
       nuclear repulsion energy       667.1579885519 Hartrees.



 Warning!  P  atom    1 may be hypervalent but has no d functions.



 NAtoms=   11 NActive=   11 NUniq=   11 SFac= 1.00D+00 NAtFMM=   60 NAOKFM=F Big=F
 Integral buffers will be    131072 words long.
 Raffenetti 2 integral format.
 Two-electron integral symmetry is turned on.
 One-electron integrals computed using PRISM.
 NBasis=   137 RedAO= T EigKep=  1.34D-02  NBF=   137
 NBsUse=   137 1.00D-06 EigRej= -1.00D+00 NBFU=   137
 Initial guess from the checkpoint file:  "HCl2PO4-h2o.chk"
 B after Tr=     0.000000    0.000000    0.000000
         Rot=    0.989995    0.014086   -0.003327    0.140360 Ang=  16.22 deg.
 ExpMin= 6.85D-02 ExpMax= 1.06D+05 ExpMxC= 3.62D+03 IAcc=2 IRadAn=         4 AccDes= 0.00D+00
 Harris functional with IExCor=  402 and IRadAn=       4 diagonalized for initial guess.
 HarFok:  IExCor=  402 AccDes= 0.00D+00 IRadAn=         4 IDoV= 1 UseB2=F ITyADJ=14
 ICtDFT=  3500011 ScaDFX=  1.000000  1.000000  1.000000  1.000000
 FoFCou: FMM=F IPFlag=           0 FMFlag=      100000 FMFlg1=           0
         NFxFlg=           0 DoJE=T BraDBF=F KetDBF=T FulRan=T
         wScrn=  0.000000 ICntrl=     500 IOpCl=  0 I1Cent=   200000004 NGrid=           0
         NMat0=    1 NMatS0=      1 NMatT0=    0 NMatD0=    1 NMtDS0=    0 NMtDT0=    0
 Petite list used in FoFCou.
 Keep R1 ints in memory in canonical form, NReq=46075568.
 Requested convergence on RMS density matrix=1.00D-08 within 128 cycles.
 Requested convergence on MAX density matrix=1.00D-06.
 Requested convergence on             energy=1.00D-06.
 No special actions if energy rises.
 Integral accuracy reduced to 1.0D-05 until final iterations.
 Initial convergence to 1.0D-05 achieved.  Increase integral accuracy.
 SCF Done:  E(RB3LYP) =  -1639.54919257     A.U. after   17 cycles
            NFock= 17  Conv=0.46D-08     -V/T= 2.0023
 Calling FoFJK, ICntrl=      2127 FMM=F ISym2X=0 I1Cent= 0 IOpClX= 0 NMat=1 NMatS=1 NMatT=0.
 ***** Axes restored to original set *****
 -------------------------------------------------------------------
 Center     Atomic                   Forces (Hartrees/Bohr)
 Number     Number              X              Y              Z
 -------------------------------------------------------------------
      1       15          -0.000575927    0.003600438    0.006977146
      2        8           0.000589881   -0.000140424    0.007209606
      3        8          -0.002620794   -0.007221249    0.000685167
      4        1          -0.000229820    0.009437722   -0.000032160
      5        8          -0.002572393    0.002012978   -0.007027314
      6        8           0.003073802   -0.006549060   -0.009892498
      7       17          -0.001042830    0.001501817    0.002744761
      8       17           0.002636711    0.001629766   -0.002081774
      9        8           0.000321989   -0.003440005    0.003620858
     10        1           0.000861737    0.000985292    0.001943195
     11        1          -0.000442355   -0.001817274   -0.004146987
 -------------------------------------------------------------------
 Cartesian Forces:  Max     0.009892498 RMS     0.004079641

 GradGradGradGradGradGradGradGradGradGradGradGradGradGradGradGradGradGrad
 Berny optimization.
 Using GEDIIS/GDIIS optimizer.
 FormGI is forming the generalized inverse of G from B-inverse, IUseBI=4.
 Internal  Forces:  Max     0.012140183 RMS     0.003275346
 Search for a local minimum.
 Step number   5 out of a maximum of   46
 All quantities printed in internal units (Hartrees-Bohrs-Radians)
 Mixed Optimization -- RFO/linear search
 Update second derivatives using D2CorX and points    4    5
 DE= -2.70D-03 DEPred=-2.38D-03 R= 1.13D+00
 TightC=F SS=  1.41D+00  RLast= 4.28D-01 DXNew= 1.4270D+00 1.2851D+00
 Trust test= 1.13D+00 RLast= 4.28D-01 DXMaxT set to 1.29D+00
 ITU=  1  1  1  1  0
 Use linear search instead of GDIIS.
     Eigenvalues ---    0.00248   0.00852   0.01039   0.02866   0.03114
     Eigenvalues ---    0.03390   0.04486   0.08570   0.12571   0.13314
     Eigenvalues ---    0.15158   0.15772   0.16348   0.20373   0.21181
     Eigenvalues ---    0.22166   0.25018   0.28033   0.30450   0.31831
     Eigenvalues ---    0.43423   0.46784   0.52280   0.55322   0.55481
     Eigenvalues ---    0.58768   0.90187
 RFO step:  Lambda=-1.52352324D-03 EMin= 2.48089802D-03
 Quartic linear search produced a step of  0.30105.
 Iteration  1 RMS(Cart)=  0.10670351 RMS(Int)=  0.00988974
 Iteration  2 RMS(Cart)=  0.02022241 RMS(Int)=  0.00033525
 Iteration  3 RMS(Cart)=  0.00035718 RMS(Int)=  0.00012015
 Iteration  4 RMS(Cart)=  0.00000013 RMS(Int)=  0.00012015
 Variable       Old X    -DE/DX   Delta X   Delta X   Delta X     New X
                                 (Linear)    (Quad)   (Total)
    R1        3.37076  -0.00601   0.01247  -0.00603   0.00643   3.37719
    R2        3.14320  -0.00353   0.00103  -0.00552  -0.00449   3.13872
    R3        3.32241  -0.00627   0.01244  -0.00606   0.00639   3.32880
    R4        2.97967  -0.01214   0.00741  -0.00893  -0.00151   2.97816
    R5        3.50222  -0.00368   0.00472  -0.00857  -0.00385   3.49837
    R6        1.87762   0.00295  -0.00005   0.00571   0.00567   1.88328
    R7        3.25598  -0.00426  -0.03076  -0.07346  -0.10422   3.15176
    R8        3.50755  -0.00317   0.00404  -0.00836  -0.00432   3.50322
    R9        1.83085   0.00217  -0.00078   0.00191   0.00112   1.83198
   R10        1.82512   0.00137  -0.00039   0.00078   0.00039   1.82551
    A1        1.67133   0.00119   0.00203   0.00608   0.00808   1.67941
    A2        1.88262  -0.00189   0.00215  -0.00885  -0.00676   1.87586
    A3        2.06787  -0.00122   0.00085  -0.00796  -0.00713   2.06073
    A4        1.80585   0.00009   0.00546   0.00553   0.01100   1.81685
    A5        2.11345  -0.00019  -0.00859  -0.00353  -0.01214   2.10130
    A6        1.89366   0.00178  -0.00039   0.00855   0.00818   1.90184
    A7        2.00901   0.00213  -0.01211   0.00189  -0.01022   1.99880
    A8        2.03768  -0.00175  -0.02051  -0.02114  -0.04165   1.99604
    A9        2.57391   0.00384   0.04566   0.04100   0.08665   2.66057
   A10        2.02989   0.00324  -0.01526   0.00444  -0.01082   2.01907
   A11        1.83677   0.00265   0.03773   0.04135   0.07871   1.91548
   A12        2.50371  -0.00520  -0.03558  -0.04708  -0.08301   2.42070
   A13        1.92351   0.00267  -0.00628   0.01363   0.00695   1.93045
    D1       -3.09091   0.00018   0.00735   0.00694   0.01430  -3.07661
    D2        1.33929   0.00002   0.00040   0.00057   0.00098   1.34027
    D3       -0.81882   0.00015  -0.00154   0.00255   0.00098  -0.81784
    D4        1.19480   0.00097  -0.01883   0.01583  -0.00303   1.19177
    D5        3.11382  -0.00065  -0.01501   0.00941  -0.00550   3.10832
    D6       -1.04538   0.00168  -0.01640   0.02328   0.00682  -1.03857
    D7        0.89377   0.00077   0.00542   0.00719   0.01263   0.90640
    D8       -0.86374   0.00002   0.00059   0.00118   0.00180  -0.86194
    D9       -3.12911  -0.00086   0.00771  -0.00311   0.00455  -3.12457
   D10        1.07670  -0.00163  -0.08628  -0.09889  -0.18516   0.89154
   D11        0.02638   0.00126  -0.01665   0.08577   0.06928   0.09565
   D12       -2.86459  -0.00040   0.01538   0.02687   0.04209  -2.82250
   D13       -2.98356   0.00024   0.02447  -0.02575  -0.00113  -2.98469
         Item               Value     Threshold  Converged?
 Maximum Force            0.012140     0.000450     NO 
 RMS     Force            0.003275     0.000300     NO 
 Maximum Displacement     0.361340     0.001800     NO 
 RMS     Displacement     0.122072     0.001200     NO 
 Predicted change in Energy=-1.042893D-03
 GradGradGradGradGradGradGradGradGradGradGradGradGradGradGradGradGradGrad

                          Input orientation:                          
 ---------------------------------------------------------------------
 Center     Atomic      Atomic             Coordinates (Angstroms)
 Number     Number       Type             X           Y           Z
 ---------------------------------------------------------------------
      1         15           0        0.207465    0.077035    0.157954
      2          8           0       -0.957301   -0.583279   -1.025747
      3          8           0        1.247777    0.731741   -0.959107
      4          1           0        0.875674    1.507234   -1.462437
      5          8           0        1.102709   -1.281298    0.833556
      6          8           0       -0.353435    0.958483    1.337839
      7         17           0        1.871742   -2.430532   -0.401160
      8         17           0       -2.453641   -1.372031   -0.273420
      9          8           0        0.122030    2.992858   -1.543913
     10          1           0       -0.001838    3.346799   -0.649935
     11          1           0       -0.348330    3.533415   -2.191795
 ---------------------------------------------------------------------
                    Distance matrix (angstroms):
                    1          2          3          4          5
     1  P    0.000000
     2  O    1.787133   0.000000
     3  O    1.660937   2.568285   0.000000
     4  H    2.262220   2.814381   0.996590   0.000000
     5  O    1.761525   2.861448   2.699446   3.619260   0.000000
     6  O    1.575972   2.885867   2.809137   3.106989   2.718690
     7  Cl   3.061098   3.435977   3.271178   4.198150   1.853827
     8  Cl   3.060614   1.851259   4.312368   4.559415   3.725756
     9  O    3.377228   3.771234   2.592673   1.667841   4.988236
    10  H    3.374588   4.061977   2.914730   2.194125   4.983979
    11  H    4.216253   4.321769   3.452022   2.477006   5.868537
                    6          7          8          9         10
     6  O    0.000000
     7  Cl   4.411457   0.000000
     8  Cl   3.526800   4.454849   0.000000
     9  O    3.559388   5.812102   5.224987   0.000000
    10  H    3.127126   6.078630   5.331083   0.969440   0.000000
    11  H    4.369053   6.610882   5.672380   0.966019   1.591293
                   11
    11  H    0.000000
 Stoichiometry    Cl2H3O5P
 Framework group  C1[X(Cl2H3O5P)]
 Deg. of freedom    27
 Full point group                 C1      NOp   1
 Largest Abelian subgroup         C1      NOp   1
 Largest concise Abelian subgroup C1      NOp   1
                         Standard orientation:                         
 ---------------------------------------------------------------------
 Center     Atomic      Atomic             Coordinates (Angstroms)
 Number     Number       Type             X           Y           Z
 ---------------------------------------------------------------------
      1         15           0       -0.293364    0.251400    0.494582
      2          8           0       -0.173866   -0.959710   -0.814149
      3          8           0       -0.813602    1.503044   -0.465341
      4          1           0       -1.731730    1.384089   -0.834235
      5          8           0        1.347417    0.708544    0.943836
      6          8           0       -1.090766   -0.139750    1.796442
      7         17           0        2.446430    1.233486   -0.453762
      8         17           0        0.291014   -2.659764   -0.247703
      9          8           0       -3.358788    1.054875   -0.673010
     10          1           0       -3.583521    0.965804    0.265806
     11          1           0       -4.103993    0.789810   -1.227629
 ---------------------------------------------------------------------
 Rotational constants (GHZ):      1.0356691      0.8503988      0.5810356
 Standard basis: 6-311G (5D, 7F)
 There are   137 symmetry adapted cartesian basis functions of A   symmetry.
 There are   137 symmetry adapted basis functions of A   symmetry.
   137 basis functions,   271 primitive gaussians,   137 cartesian basis functions
    46 alpha electrons       46 beta electrons
       nuclear repulsion energy       670.0268136361 Hartrees.



[...]
 04796895\O,0,0.1545568551,2.6141544684,-1.6705773438\H,0,0.2303869271,
 3.4612798566,-2.1233615066\H,0,-0.6160397659,2.0814256635,-1.922846383
 6\\Version=AM64L-G09RevD.01\State=1-A\HF=-1639.7828498\RMSD=7.851e-09\
 Dipole=-0.3142892,1.4138439,-2.0747176\Quadrupole=-1.8231928,6.7069254
 ,-4.8837326,0.3563024,0.5097595,-5.7069681\PG=C01 [X(Cl2H3O5P1)]\\@


 NEVER LOSE YOUR IGNORANCE, IT CAN'T BE REPLACED.
   -- ANDY CAPP
 Job cpu time:       0 days  0 hours  1 minutes 30.1 seconds.
 File lengths (MBytes):  RWF=     15 Int=      0 D2E=      0 Chk=      6 Scr=      1
 Normal termination of Gaussian 09 at Fri Jun 23 05:05:54 2017.
 Initial command:
 /usr/local/gaussian/gaussian09.d1/g09/l1.exe "/scratch/sarariop/HCl2PO4-h2o.com/Gau-31036.inp" -scrdir="/scratch/sarariop/HCl2PO4-h2o.com/"
 Default is to use a total of  10 processors:
                               10 via shared-memory
                                1 via Linda
 Entering Link 1 = /usr/local/gaussian/gaussian09.d1/g09/l1.exe PID=      3441.
  
 Copyright (c) 1988,1990,1992,1993,1995,1998,2003,2009,2013,
            Gaussian, Inc.  All Rights Reserved.
  
 This is part of the Gaussian(R) 09 program.  It is based on
 the Gaussian(R) 03 system (copyright 2003, Gaussian, Inc.),
 the Gaussian(R) 98 system (copyright 1998, Gaussian, Inc.),
 the Gaussian(R) 94 system (copyright 1995, Gaussian, Inc.),
 the Gaussian 92(TM) system (copyright 1992, Gaussian, Inc.),
 the Gaussian 90(TM) system (copyright 1990, Gaussian, Inc.),
 the Gaussian 88(TM) system (copyright 1988, Gaussian, Inc.),
 the Gaussian 86(TM) system (copyright 1986, Carnegie Mellon
 University), and the Gaussian 82(TM) system (copyright 1983,
 Carnegie Mellon University). Gaussian is a federally registered
 trademark of Gaussian, Inc.
  
 This software contains proprietary and confidential information,
 including trade secrets, belonging to Gaussian, Inc.
  
 This software is provided under written license and may be
 used, copied, transmitted, or stored only in accord with that
 written license.
  
 The following legend is applicable only to US Government
 contracts under FAR:
  
                    RESTRICTED RIGHTS LEGEND
  
 Use, reproduction and disclosure by the US Government is
 subject to restrictions as set forth in subparagraphs (a)
 and (c) of the Commercial Computer Software - Restricted
 Rights clause in FAR 52.227-19.
  
 Gaussian, Inc.
 340 Quinnipiac St., Bldg. 40, Wallingford CT 06492
  
  
 ---------------------------------------------------------------
 Warning -- This program may not be used in any manner that
 competes with the business of Gaussian, Inc. or will provide
 assistance to any competitor of Gaussian, Inc.  The licensee
 of this program is prohibited from giving any competitor of
 Gaussian, Inc. access to this program.  By using this program,
 the user acknowledges that Gaussian, Inc. is engaged in the
 business of creating and licensing software in the field of
 computational chemistry and represents and warrants to the
 licensee that it is not a competitor of Gaussian, Inc. and that
 it will not use this program in any manner prohibited above.
 ---------------------------------------------------------------
  

 Cite this work as:
 Gaussian 09, Revision D.01,
 M. J. Frisch, G. W. Trucks, H. B. Schlegel, G. E. Scuseria, 
 M. A. Robb, J. R. Cheeseman, G. Scalmani, V. Barone, B. Mennucci, 
 G. A. Petersson, H. Nakatsuji, M. Caricato, X. Li, H. P. Hratchian, 
 A. F. Izmaylov, J. Bloino, G. Zheng, J. L. Sonnenberg, M. Hada, 
 M. Ehara, K. Toyota, R. Fukuda, J. Hasegawa, M. Ishida, T. Nakajima, 
 Y. Honda, O. Kitao, H. Nakai, T. Vreven, J. A. Montgomery, Jr., 
 J. E. Peralta, F. Ogliaro, M. Bearpark, J. J. Heyd, E. Brothers, 
 K. N. Kudin, V. N. Staroverov, T. Keith, R. Kobayashi, J. Normand, 
 K. Raghavachari, A. Rendell, J. C. Burant, S. S. Iyengar, J. Tomasi, 
 M. Cossi, N. Rega, J. M. Millam, M. Klene, J. E. Knox, J. B. Cross, 
 V. Bakken, C. Adamo, J. Jaramillo, R. Gomperts, R. E. Stratmann, 
 O. Yazyev, A. J. Austin, R. Cammi, C. Pomelli, J. W. Ochterski, 
 R. L. Martin, K. Morokuma, V. G. Zakrzewski, G. A. Voth, 
 P. Salvador, J. J. Dannenberg, S. Dapprich, A. D. Daniels, 
 O. Farkas, J. B. Foresman, J. V. Ortiz, J. Cioslowski, 
 and D. J. Fox, Gaussian, Inc., Wallingford CT, 2013.
 
 ******************************************
 Gaussian 09:  AM64L-G09RevD.01 24-Apr-2013
                23-Jun-2017 
 ******************************************
 %chk=HCl2PO4-h2o.chk
 Default route:  MaxDisk=70GB
 -------------------------------------------------
 # B3LYP/6-311G** geom=check guess=read output=wfx
 -------------------------------------------------
 1/29=2,38=1/1;
 2/12=2,40=1/2;
 3/5=4,6=6,7=101,11=2,14=-4,16=1,25=1,30=1,74=-5,116=-2/1,2,3;
 4/5=1/1;
 5/5=2,38=6/2;
 6/7=2,8=2,9=2,10=2,28=1/1;
 99/5=1,6=200,9=1/99;
 -------------------
 Title Card Required
 -------------------
 Structure from the checkpoint file:  "HCl2PO4-h2o.chk"
 Charge =  0 Multiplicity = 1
 Redundant internal coordinates found in file.
 P,0,0.2262813077,0.0550450851,0.5816658383
 O,0,-0.906072184,0.2307902108,-0.7955090004
 O,0,1.2888941507,1.1674716136,0.013787698
 H,0,0.9606837636,1.8735736897,-0.661698692
 O,0,0.9739990763,-1.5092102976,0.373191831
 O,0,-0.3929396686,0.1026373739,2.0081681465
 Cl,0,1.8400261399,-1.8399132435,-1.220505808
 Cl,0,-2.4469276019,-0.7568277706,-0.7604796895
 O,0,0.1545568551,2.6141544684,-1.6705773438
 H,0,0.2303869271,3.4612798566,-2.1233615066
 H,0,-0.6160397659,2.0814256635,-1.9228463836
 Recover connectivity data from disk.
                          Input orientation:                          
 ---------------------------------------------------------------------
 Center     Atomic      Atomic             Coordinates (Angstroms)
 Number     Number       Type             X           Y           Z
 ---------------------------------------------------------------------
      1         15           0        0.226281    0.055045    0.581666
      2          8           0       -0.906072    0.230790   -0.795509
      3          8           0        1.288894    1.167472    0.013788
      4          1           0        0.960684    1.873574   -0.661699
      5          8           0        0.973999   -1.509210    0.373192
      6          8           0       -0.392940    0.102637    2.008168
      7         17           0        1.840026   -1.839913   -1.220506
      8         17           0       -2.446928   -0.756828   -0.760480
      9          8           0        0.154557    2.614154   -1.670577
     10          1           0        0.230387    3.461280   -2.123362
     11          1           0       -0.616040    2.081426   -1.922846
 ---------------------------------------------------------------------
                    Distance matrix (angstroms):
                    1          2          3          4          5
     1  P    0.000000
     2  O    1.791570   0.000000
     3  O    1.639855   2.519962   0.000000
     4  H    2.322143   2.490265   1.030817   0.000000
     5  O    1.746264   2.815694   2.718999   3.537570   0.000000
     6  O    1.555830   2.853127   2.817799   3.478031   2.672026
     7  Cl   3.072924   3.465471   3.297210   3.856876   1.843703
     8  Cl   3.099442   1.830533   4.273030   4.305878   3.681580
     9  O    3.409807   2.751564   2.493331   1.488669   4.674464
    10  H    4.349670   3.672982   3.308988   2.278289   5.611730
    11  H    3.329911   2.186289   2.866119   2.029717   4.548921
                    6          7          8          9         10
     6  O    0.000000
     7  Cl   4.379951   0.000000
     8  Cl   3.552880   4.445523   0.000000
     9  O    4.487832   4.783523   4.354253   0.000000
    10  H    5.360835   5.613264   5.178599   0.963527   0.000000
    11  H    4.406615   4.680004   3.571964   0.970185   1.631147
                   11
    11  H    0.000000
 Stoichiometry    Cl2H3O5P
 Framework group  C1[X(Cl2H3O5P)]
 Deg. of freedom    27
 Full point group                 C1      NOp   1
 Largest Abelian subgroup         C1      NOp   1
 Largest concise Abelian subgroup C1      NOp   1
                         Standard orientation:                         
 ---------------------------------------------------------------------
 Center     Atomic      Atomic             Coordinates (Angstroms)
 Number     Number       Type             X           Y           Z
 ---------------------------------------------------------------------
      1         15           0        0.064034    0.149078    0.942986
      2          8           0       -1.007229   -0.100113   -0.471235
      3          8           0        0.351142    1.728222    0.606833
      4          1           0       -0.316608    2.242825    0.013640
      5          8           0        1.532746   -0.720384    0.573716
      6          8           0       -0.459925   -0.359335    2.316882
      7         17           0        2.414328   -0.290065   -0.987334
      8         17           0       -1.773211   -1.749868   -0.677221
      9          8           0       -1.411056    2.581518   -0.936942
     10          1           0       -1.810650    3.395343   -1.263131
     11          1           0       -1.777659    1.765258   -1.311883
 ---------------------------------------------------------------------
 Rotational constants (GHZ):      1.0332099      0.8318306      0.7145752
 Standard basis: 6-311G(d,p) (5D, 7F)
 There are   194 symmetry adapted cartesian basis functions of A   symmetry.
 There are   186 symmetry adapted basis functions of A   symmetry.
   186 basis functions,   328 primitive gaussians,   194 cartesian basis functions
    46 alpha electrons       46 beta electrons
       nuclear repulsion energy       682.3365870539 Hartrees.
 NAtoms=   11 NActive=   11 NUniq=   11 SFac= 1.00D+00 NAtFMM=   60 NAOKFM=F Big=F
 Integral buffers will be    131072 words long.
 Raffenetti 2 integral format.
 Two-electron integral symmetry is turned on.
 One-electron integrals computed using PRISM.
 NBasis=   186 RedAO= T EigKep=  1.15D-02  NBF=   186
 NBsUse=   186 1.00D-06 EigRej= -1.00D+00 NBFU=   186
 Initial guess from the checkpoint file:  "HCl2PO4-h2o.chk"
 B after Tr=     0.000000    0.000000    0.000000
         Rot=    1.000000    0.000000    0.000000    0.000000 Ang=   0.00 deg.
 Keep R1 ints in memory in canonical form, NReq=155074319.
 Requested convergence on RMS density matrix=1.00D-08 within 128 cycles.
 Requested convergence on MAX density matrix=1.00D-06.
 Requested convergence on             energy=1.00D-06.
 No special actions if energy rises.
 SCF Done:  E(RB3LYP) =  -1639.78284979     A.U. after    1 cycles
            NFock=  1  Conv=0.46D-08     -V/T= 2.0027

 **********************************************************************

            Population analysis using the SCF density.

 **********************************************************************

 Orbital symmetries:
       Occupied  (A) (A) (A) (A) (A) (A) (A) (A) (A) (A) (A) (A)
                 (A) (A) (A) (A) (A) (A) (A) (A) (A) (A) (A) (A)
                 (A) (A) (A) (A) (A) (A) (A) (A) (A) (A) (A) (A)
                 (A) (A) (A) (A) (A) (A) (A) (A) (A) (A)
       Virtual   (A) (A) (A) (A) (A) (A) (A) (A) (A) (A) (A) (A)
                 (A) (A) (A) (A) (A) (A) (A) (A) (A) (A) (A) (A)
                 (A) (A) (A) (A) (A) (A) (A) (A) (A) (A) (A) (A)
                 (A) (A) (A) (A) (A) (A) (A) (A) (A) (A) (A) (A)
                 (A) (A) (A) (A) (A) (A) (A) (A) (A) (A) (A) (A)
                 (A) (A) (A) (A) (A) (A) (A) (A) (A) (A) (A) (A)
                 (A) (A) (A) (A) (A) (A) (A) (A) (A) (A) (A) (A)
                 (A) (A) (A) (A) (A) (A) (A) (A) (A) (A) (A) (A)
                 (A) (A) (A) (A) (A) (A) (A) (A) (A) (A) (A) (A)
                 (A) (A) (A) (A) (A) (A) (A) (A) (A) (A) (A) (A)
                 (A) (A) (A) (A) (A) (A) (A) (A) (A) (A) (A) (A)
                 (A) (A) (A) (A) (A) (A) (A) (A)
 The electronic state is 1-A.
 Alpha  occ. eigenvalues -- -101.62334-101.61495 -77.24722 -19.22793 -19.22575
 Alpha  occ. eigenvalues --  -19.18059 -19.17098 -19.13391  -9.53178  -9.52355
 Alpha  occ. eigenvalues --   -7.30159  -7.29322  -7.28466  -7.28430  -7.27647
 Alpha  occ. eigenvalues --   -7.27615  -6.72190  -4.88551  -4.88430  -4.88181
 Alpha  occ. eigenvalues --   -1.09294  -1.07176  -1.04049  -1.03278  -0.98167
 Alpha  occ. eigenvalues --   -0.83223  -0.82490  -0.64630  -0.61242  -0.56339
 Alpha  occ. eigenvalues --   -0.52992  -0.47235  -0.46925  -0.46040  -0.42604
 Alpha  occ. eigenvalues --   -0.42182  -0.41058  -0.39520  -0.38352  -0.37053
 Alpha  occ. eigenvalues --   -0.34906  -0.34386  -0.33269  -0.32822  -0.32247
 Alpha  occ. eigenvalues --   -0.31543
 Alpha virt. eigenvalues --   -0.15449  -0.15098  -0.02267   0.00318   0.03326
 Alpha virt. eigenvalues --    0.06046   0.08273   0.11106   0.17222   0.17791
 Alpha virt. eigenvalues --    0.18343   0.22053   0.24226   0.27249   0.28081
 Alpha virt. eigenvalues --    0.28525   0.29366   0.31375   0.32792   0.33799
 Alpha virt. eigenvalues --    0.35430   0.42031   0.54415   0.56215   0.61280
 Alpha virt. eigenvalues --    0.63778   0.66650   0.67064   0.68645   0.70070
 Alpha virt. eigenvalues --    0.71363   0.72324   0.74578   0.78378   0.78897
 Alpha virt. eigenvalues --    0.81815   0.82277   0.82569   0.82845   0.82987
 Alpha virt. eigenvalues --    0.86004   0.87351   0.88257   0.90320   0.92441
 Alpha virt. eigenvalues --    0.93634   0.95251   0.97743   0.99475   1.01740
 Alpha virt. eigenvalues --    1.04516   1.10797   1.13459   1.16658   1.18782
 Alpha virt. eigenvalues --    1.22486   1.28164   1.30880   1.34868   1.38961
 Alpha virt. eigenvalues --    1.46313   1.50256   1.51975   1.58421   1.59488
 Alpha virt. eigenvalues --    1.64969   1.69672   1.74421   1.91819   1.97195
 Alpha virt. eigenvalues --    2.04159   2.06923   2.08233   2.08616   2.08900
 Alpha virt. eigenvalues --    2.13232   2.20323   2.34726   2.46113   2.53697
 Alpha virt. eigenvalues --    2.73194   2.74231   2.75185   2.75519   2.75960
 Alpha virt. eigenvalues --    2.80642   2.82099   2.83889   2.87261   2.92414
 Alpha virt. eigenvalues --    2.93979   2.95513   2.98936   3.01317   3.05686
 Alpha virt. eigenvalues --    3.08587   3.09620   3.11454   3.19979   3.23014
 Alpha virt. eigenvalues --    3.33131   3.40220   3.64726   3.68075   3.77355
 Alpha virt. eigenvalues --    4.67987   4.70384   4.74233   4.76437   4.76809
 Alpha virt. eigenvalues --    4.79376   4.82470   4.85491   4.88709   4.92855
 Alpha virt. eigenvalues --    4.98501   5.03478   5.12548   5.53995   5.62245
 Alpha virt. eigenvalues --    6.81987   9.35730   9.38828  13.73174  13.75118
 Alpha virt. eigenvalues --   13.90396  25.29105  25.39718  25.40080  25.43864
 Alpha virt. eigenvalues --   25.73650  25.81192  49.66637  49.69476  49.75164
 Alpha virt. eigenvalues --   49.80152  49.82626 162.81381 215.28318 215.31534
          Condensed to atoms (all electrons):
               1          2          3          4          5          6
     1  P   12.506776   0.170049   0.307457  -0.031955   0.223235   0.523028
     2  O    0.170049   8.385557  -0.027066   0.003406  -0.018495  -0.018205
     3  O    0.307457  -0.027066   8.084962   0.287576  -0.022201  -0.017617
     4  H   -0.031955   0.003406   0.287576   0.282231  -0.000996  -0.001521
     5  O    0.223235  -0.018495  -0.022201  -0.000996   8.259421  -0.020309
     6  O    0.523028  -0.018205  -0.017617  -0.001521  -0.020309   8.035957
     7  Cl  -0.033545   0.001174  -0.000981   0.000862   0.071040   0.001275
     8  Cl  -0.036679   0.075435   0.001844  -0.000155   0.001885   0.000231
     9  O    0.000238  -0.005873  -0.043553   0.093503  -0.000015  -0.000023
    10  H    0.000779  -0.000054   0.002280  -0.006088   0.000005   0.000007
    11  H   -0.001492   0.017409   0.004684  -0.013036  -0.000005  -0.000091
               7          8          9         10         11
     1  P   -0.033545  -0.036679   0.000238   0.000779  -0.001492
     2  O    0.001174   0.075435  -0.005873  -0.000054   0.017409
     3  O   -0.000981   0.001844  -0.043553   0.002280   0.004684
     4  H    0.000862  -0.000155   0.093503  -0.006088  -0.013036
     5  O    0.071040   0.001885  -0.000015   0.000005  -0.000005
     6  O    0.001275   0.000231  -0.000023   0.000007  -0.000091
     7  Cl  16.816853  -0.000868   0.000034  -0.000006   0.000088
     8  Cl  -0.000868  16.796524   0.000444   0.000032  -0.002863
     9  O    0.000034   0.000444   7.841493   0.321500   0.312476
    10  H   -0.000006   0.000032   0.321500   0.400128  -0.017590
    11  H    0.000088  -0.002863   0.312476  -0.017590   0.388706
 Mulliken charges:
               1
     1  P    1.372108
     2  O   -0.583337
     3  O   -0.577385
     4  H    0.386173
     5  O   -0.493566
     6  O   -0.502734
     7  Cl   0.144073
     8  Cl   0.164171
     9  O   -0.520224
    10  H    0.299007
    11  H    0.311714
 Sum of Mulliken charges =   0.00000
 Mulliken charges with hydrogens summed into heavy atoms:
               1
     1  P    1.372108
     2  O   -0.583337
     3  O   -0.191212
     5  O   -0.493566
     6  O   -0.502734
     7  Cl   0.144073
     8  Cl   0.164171
     9  O    0.090496
 Electronic spatial extent (au):  <R**2>=           1779.5314
 Charge=              0.0000 electrons
 Dipole moment (field-independent basis, Debye):
    X=             -2.6942    Y=              3.3641    Z=             -4.7734  Tot=              6.4313
 Quadrupole moment (field-independent basis, Debye-Ang):
   XX=            -62.4013   YY=            -55.3506   ZZ=            -71.2271
   XY=             -5.7435   XZ=              3.7628   YZ=             -3.8036
 Traceless Quadrupole moment (field-independent basis, Debye-Ang):
   XX=              0.5917   YY=              7.6424   ZZ=             -8.2341
   XY=             -5.7435   XZ=              3.7628   YZ=             -3.8036
 Octapole moment (field-independent basis, Debye-Ang**2):
  XXX=            -15.7188  YYY=             44.3951  ZZZ=            -30.5848  XYY=            -37.5503
  XXY=             16.1926  XXZ=            -19.2690  XZZ=              1.2993  YZZ=             15.5060
  YYZ=            -23.3982  XYZ=              9.2871
 Hexadecapole moment (field-independent basis, Debye-Ang**3):
 XXXX=           -928.0839 YYYY=           -501.2451 ZZZZ=           -530.3060 XXXY=            -29.0307
 XXXZ=              4.9880 YYYX=            -81.2868 YYYZ=            -68.8599 ZZZX=             15.0239
 ZZZY=            -13.0067 XXYY=           -215.6764 XXZZ=           -211.9706 YYZZ=           -178.7275
 XXYZ=            -24.3556 YYXZ=             46.2170 ZZXY=            -22.6913
 N-N= 6.823365870539D+02 E-N=-5.257148469774D+03  KE= 1.635301641401D+03
 1\1\GINC-BROMO\SP\RB3LYP\6-311G(d,p)\Cl2H3O5P1\SARARIOP\23-Jun-2017\0\
 \# B3LYP/6-311G** geom=check guess=read output=wfx\\Title Card Require
 d\\0,1\P,0,0.2262813077,0.0550450851,0.5816658383\O,0,-0.906072184,0.2
 307902108,-0.7955090004\O,0,1.2888941507,1.1674716136,0.013787698\H,0,
 0.9606837636,1.8735736897,-0.661698692\O,0,0.9739990763,-1.5092102976,
 0.373191831\O,0,-0.3929396686,0.1026373739,2.0081681465\Cl,0,1.8400261
 399,-1.8399132435,-1.220505808\Cl,0,-2.4469276019,-0.7568277706,-0.760
 4796895\O,0,0.1545568551,2.6141544684,-1.6705773438\H,0,0.2303869271,3
 .4612798566,-2.1233615066\H,0,-0.6160397659,2.0814256635,-1.9228463836
 \\Version=AM64L-G09RevD.01\State=1-A\HF=-1639.7828498\RMSD=4.580e-09\D
 ipole=-0.314289,1.4138473,-2.0747143\Quadrupole=-1.8232015,6.7069243,-
 4.8837228,0.3563091,0.5097619,-5.7069709\PG=C01 [X(Cl2H3O5P1)]\\@

 Writing a WFNX file to "HCl2PO4-h2o.wfx"


 GARBAGE IN, GARBAGE OUT
 Job cpu time:       0 days  0 hours  0 minutes 39.8 seconds.
 File lengths (MBytes):  RWF=     15 Int=      0 D2E=      0 Chk=      6 Scr=      1
 Normal termination of Gaussian 09 at Fri Jun 23 05:05:59 2017.
