 Entering Gaussian System, Link 0=g09
 Initial command:
 /usr/local/gaussian/gaussian09.d1/g09/l1.exe "/scratch/sarariop/HCl2PO4-A.com/Gau-4991.inp" -scrdir="/scratch/sarariop/HCl2PO4-A.com/"
 Default is to use a total of   8 processors:
                                8 via shared-memory
                                1 via Linda
 Entering Link 1 = /usr/local/gaussian/gaussian09.d1/g09/l1.exe PID=      4995.
  
 Copyright (c) 1988,1990,1992,1993,1995,1998,2003,2009,2013,
            Gaussian, Inc.  All Rights Reserved.
  
 This is part of the Gaussian(R) 09 program.  It is based on
 the Gaussian(R) 03 system (copyright 2003, Gaussian, Inc.),
 the Gaussian(R) 98 system (copyright 1998, Gaussian, Inc.),
 the Gaussian(R) 94 system (copyright 1995, Gaussian, Inc.),
 the Gaussian 92(TM) system (copyright 1992, Gaussian, Inc.),
 the Gaussian 90(TM) system (copyright 1990, Gaussian, Inc.),
 the Gaussian 88(TM) system (copyright 1988, Gaussian, Inc.),
 the Gaussian 86(TM) system (copyright 1986, Carnegie Mellon
 University), and the Gaussian 82(TM) system (copyright 1983,
 Carnegie Mellon University). Gaussian is a federally registered
 trademark of Gaussian, Inc.
  
 This software contains proprietary and confidential information,
 including trade secrets, belonging to Gaussian, Inc.
  
 This software is provided under written license and may be
 used, copied, transmitted, or stored only in accord with that
 written license.
  
 The following legend is applicable only to US Government
 contracts under FAR:
  
                    RESTRICTED RIGHTS LEGEND
  
 Use, reproduction and disclosure by the US Government is
 subject to restrictions as set forth in subparagraphs (a)
 and (c) of the Commercial Computer Software - Restricted
 Rights clause in FAR 52.227-19.
  
 Gaussian, Inc.
 340 Quinnipiac St., Bldg. 40, Wallingford CT 06492
  
  
 ---------------------------------------------------------------
 Warning -- This program may not be used in any manner that
 competes with the business of Gaussian, Inc. or will provide
 assistance to any competitor of Gaussian, Inc.  The licensee
 of this program is prohibited from giving any competitor of
 Gaussian, Inc. access to this program.  By using this program,
 the user acknowledges that Gaussian, Inc. is engaged in the
 business of creating and licensing software in the field of
 computational chemistry and represents and warrants to the
 licensee that it is not a competitor of Gaussian, Inc. and that
 it will not use this program in any manner prohibited above.
 ---------------------------------------------------------------
  

 Cite this work as:
 Gaussian 09, Revision D.01,
 M. J. Frisch, G. W. Trucks, H. B. Schlegel, G. E. Scuseria, 
 M. A. Robb, J. R. Cheeseman, G. Scalmani, V. Barone, B. Mennucci, 
 G. A. Petersson, H. Nakatsuji, M. Caricato, X. Li, H. P. Hratchian, 
 A. F. Izmaylov, J. Bloino, G. Zheng, J. L. Sonnenberg, M. Hada, 
 M. Ehara, K. Toyota, R. Fukuda, J. Hasegawa, M. Ishida, T. Nakajima, 
 Y. Honda, O. Kitao, H. Nakai, T. Vreven, J. A. Montgomery, Jr., 
 J. E. Peralta, F. Ogliaro, M. Bearpark, J. J. Heyd, E. Brothers, 
 K. N. Kudin, V. N. Staroverov, T. Keith, R. Kobayashi, J. Normand, 
 K. Raghavachari, A. Rendell, J. C. Burant, S. S. Iyengar, J. Tomasi, 
 M. Cossi, N. Rega, J. M. Millam, M. Klene, J. E. Knox, J. B. Cross, 
 V. Bakken, C. Adamo, J. Jaramillo, R. Gomperts, R. E. Stratmann, 
 O. Yazyev, A. J. Austin, R. Cammi, C. Pomelli, J. W. Ochterski, 
 R. L. Martin, K. Morokuma, V. G. Zakrzewski, G. A. Voth, 
 P. Salvador, J. J. Dannenberg, S. Dapprich, A. D. Daniels, 
 O. Farkas, J. B. Foresman, J. V. Ortiz, J. Cioslowski, 
 and D. J. Fox, Gaussian, Inc., Wallingford CT, 2013.
 
 ******************************************
 Gaussian 09:  AM64L-G09RevD.01 24-Apr-2013
                21-Jun-2017 
 ******************************************
 %chk=HCl2PO4-A.chk
 Default route:  MaxDisk=56GB
 -----------------------------------------
 # opt freq b3lyp/6-311g geom=connectivity
 -----------------------------------------
 1/14=-1,18=20,19=15,26=3,38=1,57=2/1,3;
 2/9=110,12=2,17=6,18=5,40=1/2;
 3/5=4,6=6,11=2,16=1,25=1,30=1,71=1,74=-5/1,2,3;
 4//1;
 5/5=2,38=5/2;
 6/7=2,8=2,9=2,10=2,28=1/1;
 7//1,2,3,16;
 1/14=-1,18=20,19=15,26=3/3(2);
 2/9=110/2;
 99//99;
 2/9=110/2;
 3/5=4,6=6,11=2,16=1,25=1,30=1,71=1,74=-5/1,2,3;
 4/5=5,16=3,69=1/1;
 5/5=2,38=5/2;
 7//1,2,3,16;
 1/14=-1,18=20,19=15,26=3/3(-5);
 2/9=110/2;
 6/7=2,8=2,9=2,10=2,19=2,28=1/1;
 99/9=1/99;
 -------------------
 Title Card Required
 -------------------
 Symbolic Z-matrix:
 Charge = -1 Multiplicity = 1
 P                    -1.39225  -0.54479   0. 
 O                    -2.27405  -1.57037  -0.9289 
 O                    -0.53883   0.11202  -1.17354 
 O                    -0.30096  -1.44692   0.78801 
 O                    -2.12228   0.30094   0.94369 
 Cl                    0.67257  -2.58902  -0.0985 
 Cl                   -3.46996  -2.52516  -0.11042 
 

 GradGradGradGradGradGradGradGradGradGradGradGradGradGradGradGradGradGrad
 Berny optimization.
 Initialization pass.
                           ----------------------------
                           !    Initial Parameters    !
                           ! (Angstroms and Degrees)  !
 --------------------------                            --------------------------
 ! Name  Definition              Value          Derivative Info.                !
 --------------------------------------------------------------------------------
 ! R1    R(1,2)                  1.6408         estimate D2E/DX2                !
 ! R2    R(1,3)                  1.5928         estimate D2E/DX2                !
 ! R3    R(1,4)                  1.6204         estimate D2E/DX2                !
 ! R4    R(1,5)                  1.4625         estimate D2E/DX2                !
 ! R5    R(2,7)                  1.7354         estimate D2E/DX2                !
 ! R6    R(4,6)                  1.743          estimate D2E/DX2                !
 ! A1    A(2,1,3)               97.388          estimate D2E/DX2                !
 ! A2    A(2,1,4)              106.8137         estimate D2E/DX2                !
 ! A3    A(2,1,5)              117.2907         estimate D2E/DX2                !
 ! A4    A(3,1,4)              103.1224         estimate D2E/DX2                !
 ! A5    A(3,1,5)              120.2934         estimate D2E/DX2                !
 ! A6    A(4,1,5)              110.1414         estimate D2E/DX2                !
 ! A7    A(1,2,7)              116.5661         estimate D2E/DX2                !
 ! A8    A(1,4,6)              119.5785         estimate D2E/DX2                !
 ! D1    D(3,1,2,7)           -177.411          estimate D2E/DX2                !
 ! D2    D(4,1,2,7)             76.4279         estimate D2E/DX2                !
 ! D3    D(5,1,2,7)            -47.6745         estimate D2E/DX2                !
 ! D4    D(2,1,4,6)             49.5502         estimate D2E/DX2                !
 ! D5    D(3,1,4,6)            -52.477          estimate D2E/DX2                !
 ! D6    D(5,1,4,6)            177.9402         estimate D2E/DX2                !
 --------------------------------------------------------------------------------
 Trust Radius=3.00D-01 FncErr=1.00D-07 GrdErr=1.00D-06
 Number of steps in this run=     30 maximum allowed number of steps=    100.
 GradGradGradGradGradGradGradGradGradGradGradGradGradGradGradGradGradGrad

                          Input orientation:                          
 ---------------------------------------------------------------------
 Center     Atomic      Atomic             Coordinates (Angstroms)
 Number     Number       Type             X           Y           Z
 ---------------------------------------------------------------------
      1         15           0       -1.392252   -0.544794    0.000000
      2          8           0       -2.274050   -1.570372   -0.928895
      3          8           0       -0.538832    0.112017   -1.173544
      4          8           0       -0.300958   -1.446921    0.788009
      5          8           0       -2.122278    0.300943    0.943691
      6         17           0        0.672573   -2.589015   -0.098497
      7         17           0       -3.469961   -2.525161   -0.110420
 ---------------------------------------------------------------------
                    Distance matrix (angstroms):
                    1          2          3          4          5
     1  P    0.000000
     2  O    1.640800   0.000000
     3  O    1.592775   2.429252   0.000000
     4  O    1.620405   2.618414   2.516856   0.000000
     5  O    1.462451   2.651685   2.650600   2.529125   0.000000
     6  Cl   2.907240   3.226419   3.149413   1.742996   4.153216
     7  Cl   2.872442   1.735433   4.083682   3.465885   3.303674
                    6          7
     6  Cl   0.000000
     7  Cl   4.143043   0.000000
 Stoichiometry    Cl2O4P(1-)
 Framework group  C1[X(Cl2O4P)]
 Deg. of freedom    15
 Full point group                 C1      NOp   1
 Largest Abelian subgroup         C1      NOp   1
 Largest concise Abelian subgroup C1      NOp   1
                         Standard orientation:                         
 ---------------------------------------------------------------------
 Center     Atomic      Atomic             Coordinates (Angstroms)
 Number     Number       Type             X           Y           Z
 ---------------------------------------------------------------------
      1         15           0        0.038612    0.889287   -0.034982
      2          8           0        0.913627   -0.191099    0.836418
      3          8           0       -0.804042    1.493171    1.174228
      4          8           0       -1.064360    0.039388   -0.863739
      5          8           0        0.773508    1.775286   -0.937034
      6         17           0       -2.045873   -1.137277   -0.033001
      7         17           0        2.097105   -1.114092   -0.034896
 ---------------------------------------------------------------------
 Rotational constants (GHZ):      1.9502424      1.2298707      0.9165743
 Standard basis: 6-311G (5D, 7F)
 There are   115 symmetry adapted cartesian basis functions of A   symmetry.
 There are   115 symmetry adapted basis functions of A   symmetry.
   115 basis functions,   230 primitive gaussians,   115 cartesian basis functions
    41 alpha electrons       41 beta electrons
       nuclear repulsion energy       576.1747464603 Hartrees.



 Warning!  P  atom    1 may be hypervalent but has no d functions.



 NAtoms=    7 NActive=    7 NUniq=    7 SFac= 1.00D+00 NAtFMM=   60 NAOKFM=F Big=F
 Integral buffers will be    131072 words long.
 Raffenetti 2 integral format.
 Two-electron integral symmetry is turned on.
 One-electron integrals computed using PRISM.
 NBasis=   115 RedAO= T EigKep=  1.19D-02  NBF=   115
 NBsUse=   115 1.00D-06 EigRej= -1.00D+00 NBFU=   115
 ExpMin= 6.85D-02 ExpMax= 1.06D+05 ExpMxC= 3.62D+03 IAcc=2 IRadAn=         4 AccDes= 0.00D+00
 Harris functional with IExCor=  402 and IRadAn=       4 diagonalized for initial guess.
 HarFok:  IExCor=  402 AccDes= 0.00D+00 IRadAn=         4 IDoV= 1 UseB2=F ITyADJ=14
 ICtDFT=  3500011 ScaDFX=  1.000000  1.000000  1.000000  1.000000
 FoFCou: FMM=F IPFlag=           0 FMFlag=      100000 FMFlg1=           0
         NFxFlg=           0 DoJE=T BraDBF=F KetDBF=T FulRan=T
         wScrn=  0.000000 ICntrl=     500 IOpCl=  0 I1Cent=   200000004 NGrid=           0
         NMat0=    1 NMatS0=      1 NMatT0=    0 NMatD0=    1 NMtDS0=    0 NMtDT0=    0
 Petite list used in FoFCou.
 Keep R1 ints in memory in canonical form, NReq=23243470.
 Requested convergence on RMS density matrix=1.00D-08 within 128 cycles.
 Requested convergence on MAX density matrix=1.00D-06.
 Requested convergence on             energy=1.00D-06.
 No special actions if energy rises.
 Integral accuracy reduced to 1.0D-05 until final iterations.
 EnCoef did     2 forward-backward iterations
 EnCoef did     4 forward-backward iterations
 EnCoef did     1 forward-backward iterations
 Initial convergence to 1.0D-05 achieved.  Increase integral accuracy.
 SCF Done:  E(RB3LYP) =  -1562.56372811     A.U. after   18 cycles
            NFock= 18  Conv=0.99D-08     -V/T= 2.0014

 **********************************************************************

            Population analysis using the SCF density.

 **********************************************************************

 Orbital symmetries:
       Occupied  (A) (A) (A) (A) (A) (A) (A) (A) (A) (A) (A) (A)
                 (A) (A) (A) (A) (A) (A) (A) (A) (A) (A) (A) (A)
                 (A) (A) (A) (A) (A) (A) (A) (A) (A) (A) (A) (A)
                 (A) (A) (A) (A) (A)
       Virtual   (A) (A) (A) (A) (A) (A) (A) (A) (A) (A) (A) (A)
                 (A) (A) (A) (A) (A) (A) (A) (A) (A) (A) (A) (A)
                 (A) (A) (A) (A) (A) (A) (A) (A) (A) (A) (A) (A)
                 (A) (A) (A) (A) (A) (A) (A) (A) (A) (A) (A) (A)
                 (A) (A) (A) (A) (A) (A) (A) (A) (A) (A) (A) (A)
                 (A) (A) (A) (A) (A) (A) (A) (A) (A) (A) (A) (A)
                 (A) (A)
 The electronic state is 1-A.
 Alpha  occ. eigenvalues -- -101.47000-101.45781 -77.06740 -19.05029 -19.04866
 Alpha  occ. eigenvalues --  -18.94337 -18.90480  -9.38190  -9.37097  -7.15151
 Alpha  occ. eigenvalues --   -7.13948  -7.13414  -7.13380  -7.12364  -7.12329
 Alpha  occ. eigenvalues --   -6.56641  -4.72714  -4.72702  -4.72469  -0.98138
 Alpha  occ. eigenvalues --   -0.92777  -0.86763  -0.77660  -0.68888  -0.67709
 Alpha  occ. eigenvalues --   -0.44438  -0.39815  -0.32139  -0.31752  -0.30043
 Alpha  occ. eigenvalues --   -0.26890  -0.26597  -0.22050  -0.19803  -0.19434
 Alpha  occ. eigenvalues --   -0.16960  -0.16454  -0.15593  -0.15124  -0.10243
 Alpha  occ. eigenvalues --   -0.09881
 Alpha virt. eigenvalues --    0.02503   0.04220   0.22334   0.26820   0.27976
 Alpha virt. eigenvalues --    0.30443   0.35036   0.35891   0.37220   0.38382
 Alpha virt. eigenvalues --    0.41557   0.42886   0.43575   0.45432   0.48530
 Alpha virt. eigenvalues --    0.52215   0.82437   0.84547   0.87021   0.88746
 Alpha virt. eigenvalues --    0.91808   0.96491   0.99198   1.00194   1.04273
 Alpha virt. eigenvalues --    1.11423   1.13377   1.19183   1.21226   1.25437
 Alpha virt. eigenvalues --    1.33978   1.39862   1.46613   1.58593   1.60785
 Alpha virt. eigenvalues --    1.67419   1.77144   2.19820   2.23307   2.23694
 Alpha virt. eigenvalues --    2.25265   2.28366   2.31053   4.82871   4.87208
 Alpha virt. eigenvalues --    4.89126   4.92275   4.93966   4.95873   4.96647
 Alpha virt. eigenvalues --    5.02475   5.02778   5.09043   5.09152   5.12131
 Alpha virt. eigenvalues --    6.83154   9.52380   9.55622  13.87415  13.87534
 Alpha virt. eigenvalues --   14.00158  25.44188  25.53199  25.53832  25.59555
 Alpha virt. eigenvalues --   25.79903  25.86020  49.83209  49.86796  49.94882
 Alpha virt. eigenvalues --   50.02560 162.92110 215.45744 215.49333
          Condensed to atoms (all electrons):
               1          2          3          4          5          6
     1  P   12.876414  -0.002016   0.361665  -0.026542   0.274798  -0.040524
     2  O   -0.002016   8.905094  -0.058321  -0.053589  -0.060326   0.003562
     3  O    0.361665  -0.058321   8.580689  -0.082568  -0.063564   0.002955
     4  O   -0.026542  -0.053589  -0.082568   8.908011  -0.051129  -0.010749
     5  O    0.274798  -0.060326  -0.063564  -0.051129   8.623037   0.003156
     6  Cl  -0.040524   0.003562   0.002955  -0.010749   0.003156  16.887202
     7  Cl  -0.029729  -0.080001   0.006025   0.003644   0.003579  -0.002862
               7
     1  P   -0.029729
     2  O   -0.080001
     3  O    0.006025
     4  O    0.003644
     5  O    0.003579
     6  Cl  -0.002862
     7  Cl  17.024621
 Mulliken charges:
               1
     1  P    1.585933
     2  O   -0.654404
     3  O   -0.746883
     4  O   -0.687079
     5  O   -0.729551
     6  Cl   0.157260
     7  Cl   0.074724
 Sum of Mulliken charges =  -1.00000
 Mulliken charges with hydrogens summed into heavy atoms:
               1
     1  P    1.585933
     2  O   -0.654404
     3  O   -0.746883
     4  O   -0.687079
     5  O   -0.729551
     6  Cl   0.157260
     7  Cl   0.074724
 Electronic spatial extent (au):  <R**2>=           1232.1616
 Charge=             -1.0000 electrons
 Dipole moment (field-independent basis, Debye):
    X=              0.1921    Y=             -5.1359    Z=             -1.0634  Tot=              5.2483
 Quadrupole moment (field-independent basis, Debye-Ang):
   XX=            -70.2745   YY=            -74.9570   ZZ=            -72.9214
   XY=              1.2157   XZ=              1.4241   YZ=             -0.5711
 Traceless Quadrupole moment (field-independent basis, Debye-Ang):
   XX=              2.4431   YY=             -2.2394   ZZ=             -0.2038
   XY=              1.2157   XZ=              1.4241   YZ=             -0.5711
 Octapole moment (field-independent basis, Debye-Ang**2):
  XXX=             -2.1693  YYY=            -24.4864  ZZZ=             -3.2741  XYY=             -4.2873
  XXY=             -7.3922  XXZ=              0.0198  XZZ=              2.0569  YZZ=            -12.7038
  YYZ=              0.6626  XYZ=             13.1179
 Hexadecapole moment (field-independent basis, Debye-Ang**3):
 XXXX=           -861.9952 YYYY=           -561.1851 ZZZZ=           -217.5524 XXXY=              6.1357
 XXXZ=            -12.2722 YYYX=              1.5394 YYYZ=              0.5983 ZZZX=              3.4266
 ZZZY=             -4.5724 XXYY=           -228.6217 XXZZ=           -183.2150 YYZZ=           -140.2387
 XXYZ=             -0.2617 YYXZ=              9.1104 ZZXY=              2.0260
 N-N= 5.761747464603D+02 E-N=-4.878176392277D+03  KE= 1.560424643484D+03
 Calling FoFJK, ICntrl=      2127 FMM=F ISym2X=0 I1Cent= 0 IOpClX= 0 NMat=1 NMatS=1 NMatT=0.
 ***** Axes restored to original set *****
 -------------------------------------------------------------------
 Center     Atomic                   Forces (Hartrees/Bohr)
 Number     Number              X              Y              Z
 -------------------------------------------------------------------
      1       15           0.071116131    0.056735610   -0.112182128
      2        8           0.004100059   -0.009781520   -0.050905467
      3        8          -0.004385234    0.001358445   -0.008602351
      4        8           0.019527559   -0.030535711    0.072374474
      5        8          -0.065002731    0.052622565    0.090242020
      6       17           0.025088258   -0.027842831   -0.017720296
      7       17          -0.050444042   -0.042556559    0.026793748
 -------------------------------------------------------------------
 Cartesian Forces:  Max     0.112182128 RMS     0.049829397

 GradGradGradGradGradGradGradGradGradGradGradGradGradGradGradGradGradGrad
 Berny optimization.
 FormGI is forming the generalized inverse of G from B-inverse, IUseBI=4.
 Internal  Forces:  Max     0.121104005 RMS     0.043552269
 Search for a local minimum.
 Step number   1 out of a maximum of   30
 All quantities printed in internal units (Hartrees-Bohrs-Radians)
 Mixed Optimization -- RFO/linear search
 Second derivative matrix not updated -- first step.
 The second derivative matrix:
                          R1        R2        R3        R4        R5
           R1           0.44074
           R2           0.00000   0.52641
           R3           0.00000   0.00000   0.47466
           R4           0.00000   0.00000   0.00000   0.90588
           R5           0.00000   0.00000   0.00000   0.00000   0.31942
           R6           0.00000   0.00000   0.00000   0.00000   0.00000
           A1           0.00000   0.00000   0.00000   0.00000   0.00000
           A2           0.00000   0.00000   0.00000   0.00000   0.00000
           A3           0.00000   0.00000   0.00000   0.00000   0.00000
           A4           0.00000   0.00000   0.00000   0.00000   0.00000
           A5           0.00000   0.00000   0.00000   0.00000   0.00000
           A6           0.00000   0.00000   0.00000   0.00000   0.00000
           A7           0.00000   0.00000   0.00000   0.00000   0.00000
           A8           0.00000   0.00000   0.00000   0.00000   0.00000
           D1           0.00000   0.00000   0.00000   0.00000   0.00000
           D2           0.00000   0.00000   0.00000   0.00000   0.00000
           D3           0.00000   0.00000   0.00000   0.00000   0.00000
           D4           0.00000   0.00000   0.00000   0.00000   0.00000
           D5           0.00000   0.00000   0.00000   0.00000   0.00000
           D6           0.00000   0.00000   0.00000   0.00000   0.00000
                          R6        A1        A2        A3        A4
           R6           0.31176
           A1           0.00000   0.25000
           A2           0.00000   0.00000   0.25000
           A3           0.00000   0.00000   0.00000   0.25000
           A4           0.00000   0.00000   0.00000   0.00000   0.25000
           A5           0.00000   0.00000   0.00000   0.00000   0.00000
           A6           0.00000   0.00000   0.00000   0.00000   0.00000
           A7           0.00000   0.00000   0.00000   0.00000   0.00000
           A8           0.00000   0.00000   0.00000   0.00000   0.00000
           D1           0.00000   0.00000   0.00000   0.00000   0.00000
           D2           0.00000   0.00000   0.00000   0.00000   0.00000
           D3           0.00000   0.00000   0.00000   0.00000   0.00000
           D4           0.00000   0.00000   0.00000   0.00000   0.00000
           D5           0.00000   0.00000   0.00000   0.00000   0.00000
           D6           0.00000   0.00000   0.00000   0.00000   0.00000
                          A5        A6        A7        A8        D1
           A5           0.25000
           A6           0.00000   0.25000
           A7           0.00000   0.00000   0.25000
           A8           0.00000   0.00000   0.00000   0.25000
           D1           0.00000   0.00000   0.00000   0.00000   0.02873
           D2           0.00000   0.00000   0.00000   0.00000   0.00000
           D3           0.00000   0.00000   0.00000   0.00000   0.00000
           D4           0.00000   0.00000   0.00000   0.00000   0.00000
           D5           0.00000   0.00000   0.00000   0.00000   0.00000
           D6           0.00000   0.00000   0.00000   0.00000   0.00000
                          D2        D3        D4        D5        D6
           D2           0.02873
           D3           0.00000   0.02873
           D4           0.00000   0.00000   0.03143
           D5           0.00000   0.00000   0.00000   0.03143
           D6           0.00000   0.00000   0.00000   0.00000   0.03143
 ITU=  0
     Eigenvalues ---    0.02873   0.03143   0.12914   0.16669   0.18201
     Eigenvalues ---    0.22277   0.25000   0.25000   0.25000   0.31176
     Eigenvalues ---    0.31942   0.44074   0.47466   0.52641   0.90588
 RFO step:  Lambda=-7.19758170D-02 EMin= 2.87319073D-02
 Linear search not attempted -- first point.
 Maximum step size (   0.300) exceeded in Quadratic search.
    -- Step size scaled by   0.792
 Iteration  1 RMS(Cart)=  0.09687503 RMS(Int)=  0.00355341
 Iteration  2 RMS(Cart)=  0.00476161 RMS(Int)=  0.00183022
 Iteration  3 RMS(Cart)=  0.00001848 RMS(Int)=  0.00183018
 Iteration  4 RMS(Cart)=  0.00000009 RMS(Int)=  0.00183018
 Variable       Old X    -DE/DX   Delta X   Delta X   Delta X     New X
                                 (Linear)    (Quad)   (Total)
    R1        3.10066   0.07127   0.00000   0.11012   0.11012   3.21078
    R2        3.00991   0.00456   0.00000   0.00604   0.00604   3.01594
    R3        3.06212   0.08914   0.00000   0.12919   0.12919   3.19131
    R4        2.76363   0.12110   0.00000   0.09811   0.09811   2.86175
    R5        3.27949   0.07082   0.00000   0.14334   0.14334   3.42283
    R6        3.29378   0.04125   0.00000   0.08517   0.08517   3.37895
    A1        1.69974   0.00144   0.00000   0.01711   0.01766   1.71740
    A2        1.86425  -0.01350   0.00000  -0.04883  -0.05143   1.81282
    A3        2.04711  -0.00721   0.00000  -0.03718  -0.04132   2.00578
    A4        1.79983   0.02599   0.00000   0.08686   0.08694   1.88676
    A5        2.09952   0.01362   0.00000   0.05604   0.05634   2.15585
    A6        1.92233  -0.01734   0.00000  -0.06263  -0.06646   1.85587
    A7        2.03446   0.02516   0.00000   0.06190   0.06190   2.09636
    A8        2.08704   0.01301   0.00000   0.03202   0.03202   2.11906
    D1       -3.09641   0.00324   0.00000   0.00484   0.00511  -3.09129
    D2        1.33392  -0.02203   0.00000  -0.08310  -0.08108   1.25284
    D3       -0.83208   0.01740   0.00000   0.06735   0.06505  -0.76702
    D4        0.86481   0.01272   0.00000   0.05544   0.05223   0.91705
    D5       -0.91590   0.00592   0.00000   0.02046   0.02080  -0.89510
    D6        3.10564  -0.01765   0.00000  -0.06836  -0.06550   3.04015
         Item               Value     Threshold  Converged?
 Maximum Force            0.121104     0.000450     NO 
 RMS     Force            0.043552     0.000300     NO 
 Maximum Displacement     0.182880     0.001800     NO 
 RMS     Displacement     0.097296     0.001200     NO 
 Predicted change in Energy=-3.821519D-02
 GradGradGradGradGradGradGradGradGradGradGradGradGradGradGradGradGradGrad

                          Input orientation:                          
 ---------------------------------------------------------------------
 Center     Atomic      Atomic             Coordinates (Angstroms)
 Number     Number       Type             X           Y           Z
 ---------------------------------------------------------------------
      1         15           0       -1.357070   -0.469795   -0.040536
      2          8           0       -2.297476   -1.558308   -0.944762
      3          8           0       -0.560022    0.207081   -1.246218
      4          8           0       -0.285434   -1.465171    0.803719
      5          8           0       -2.119948    0.317541    1.004182
      6         17           0        0.713235   -2.685791   -0.038847
      7         17           0       -3.519041   -2.608862   -0.117193
 ---------------------------------------------------------------------
                    Distance matrix (angstroms):
                    1          2          3          4          5
     1  P    0.000000
     2  O    1.699073   0.000000
     3  O    1.595969   2.495240   0.000000
     4  O    1.688769   2.667241   2.659711   0.000000
     5  O    1.514371   2.710851   2.740415   2.565870   0.000000
     6  Cl   3.032623   3.340102   3.383436   1.788063   4.258502
     7  Cl   3.042302   1.811285   4.237927   3.551383   3.432023
                    6          7
     6  Cl   0.000000
     7  Cl   4.233700   0.000000
 Stoichiometry    Cl2O4P(1-)
 Framework group  C1[X(Cl2O4P)]
 Deg. of freedom    15
 Full point group                 C1      NOp   1
 Largest Abelian subgroup         C1      NOp   1
 Largest concise Abelian subgroup C1      NOp   1
                         Standard orientation:                         
 ---------------------------------------------------------------------
 Center     Atomic      Atomic             Coordinates (Angstroms)
 Number     Number       Type             X           Y           Z
 ---------------------------------------------------------------------
      1         15           0        0.002352    0.975623   -0.025338
      2          8           0        0.953485   -0.129698    0.846705
      3          8           0       -0.766904    1.641968    1.204030
      4          8           0       -1.091606   -0.002723   -0.860824
      5          8           0        0.749564    1.771527   -1.074876
      6         17           0       -2.081155   -1.227937   -0.014174
      7         17           0        2.152237   -1.176941   -0.017604
 ---------------------------------------------------------------------
 Rotational constants (GHZ):      1.7472054      1.1740517      0.8570716
 Standard basis: 6-311G (5D, 7F)
 There are   115 symmetry adapted cartesian basis functions of A   symmetry.
 There are   115 symmetry adapted basis functions of A   symmetry.
   115 basis functions,   230 primitive gaussians,   115 cartesian basis functions
    41 alpha electrons       41 beta electrons
       nuclear repulsion energy       556.6411314710 Hartrees.



 Warning!  P  atom    1 may be hypervalent but has no d functions.



 NAtoms=    7 NActive=    7 NUniq=    7 SFac= 1.00D+00 NAtFMM=   60 NAOKFM=F Big=F
 Integral buffers will be    131072 words long.
 Raffenetti 2 integral format.
 Two-electron integral symmetry is turned on.
 One-electron integrals computed using PRISM.
 NBasis=   115 RedAO= T EigKep=  1.35D-02  NBF=   115
 NBsUse=   115 1.00D-06 EigRej= -1.00D+00 NBFU=   115
 Initial guess from the checkpoint file:  "HCl2PO4-A.chk"
 B after Tr=     0.000000    0.000000    0.000000
         Rot=    0.999854    0.016101   -0.004894   -0.002870 Ang=   1.96 deg.
 ExpMin= 6.85D-02 ExpMax= 1.06D+05 ExpMxC= 3.62D+03 IAcc=2 IRadAn=         4 AccDes= 0.00D+00
 Harris functional with IExCor=  402 and IRadAn=       4 diagonalized for initial guess.
 HarFok:  IExCor=  402 AccDes= 0.00D+00 IRadAn=         4 IDoV= 1 UseB2=F ITyADJ=14
 ICtDFT=  3500011 ScaDFX=  1.000000  1.000000  1.000000  1.000000
 FoFCou: FMM=F IPFlag=           0 FMFlag=      100000 FMFlg1=           0
         NFxFlg=           0 DoJE=T BraDBF=F KetDBF=T FulRan=T
         wScrn=  0.000000 ICntrl=     500 IOpCl=  0 I1Cent=   200000004 NGrid=           0
         NMat0=    1 NMatS0=      1 NMatT0=    0 NMatD0=    1 NMtDS0=    0 NMtDT0=    0
 Petite list used in FoFCou.
 Keep R1 ints in memory in canonical form, NReq=23243470.
 Requested convergence on RMS density matrix=1.00D-08 within 128 cycles.
 Requested convergence on MAX density matrix=1.00D-06.
 Requested convergence on             energy=1.00D-06.
 No special actions if energy rises.
 Integral accuracy reduced to 1.0D-05 until final iterations.
 Initial convergence to 1.0D-05 achieved.  Increase integral accuracy.
 SCF Done:  E(RB3LYP) =  -1562.60403529     A.U. after   15 cycles
            NFock= 15  Conv=0.82D-08     -V/T= 2.0018
 Calling FoFJK, ICntrl=      2127 FMM=F ISym2X=0 I1Cent= 0 IOpClX= 0 NMat=1 NMatS=1 NMatT=0.
 ***** Axes restored to original set *****
 -------------------------------------------------------------------
 Center     Atomic                   Forces (Hartrees/Bohr)
 Number     Number              X              Y              Z
 -------------------------------------------------------------------
      1       15           0.033862458    0.036612967   -0.060532982
      2        8          -0.005694591   -0.011699206   -0.028206583
      3        8          -0.005361290   -0.003955594    0.000921087
      4        8           0.008981979   -0.013667414    0.042153517
      5        8          -0.027777399    0.020999557    0.045885596
      6       17           0.011997223   -0.013933327   -0.010984648
      7       17          -0.016008379   -0.014356983    0.010764014
 -------------------------------------------------------------------
 Cartesian Forces:  Max     0.060532982 RMS     0.025411847

 GradGradGradGradGradGradGradGradGradGradGradGradGradGradGradGradGradGrad
 Berny optimization.
 Using GEDIIS/GDIIS optimizer.
 FormGI is forming the generalized inverse of G from B-inverse, IUseBI=4.
 Internal  Forces:  Max     0.056567205 RMS     0.020447593
 Search for a local minimum.
 Step number   2 out of a maximum of   30
 All quantities printed in internal units (Hartrees-Bohrs-Radians)
 Mixed Optimization -- RFO/linear search
 Update second derivatives using D2CorX and points    1    2
 DE= -4.03D-02 DEPred=-3.82D-02 R= 1.05D+00
 TightC=F SS=  1.41D+00  RLast= 3.31D-01 DXNew= 5.0454D-01 9.9151D-01
 Trust test= 1.05D+00 RLast= 3.31D-01 DXMaxT set to 5.05D-01
 The second derivative matrix:
                          R1        R2        R3        R4        R5
           R1           0.41288
           R2           0.00597   0.52905
           R3          -0.03316   0.00813   0.43544
           R4          -0.04724   0.01202  -0.05575   0.82669
           R5          -0.01015   0.01029  -0.00997  -0.01328   0.33252
           R6          -0.01350   0.00377  -0.01584  -0.02247  -0.00311
           A1          -0.00262   0.00052  -0.00313  -0.00447  -0.00105
           A2           0.00670  -0.00178   0.00789   0.01120   0.00174
           A3           0.00648  -0.00111   0.00778   0.01111   0.00293
           A4          -0.01236   0.00271  -0.01470  -0.02093  -0.00438
           A5          -0.01236   0.00050  -0.01527  -0.02200  -0.00895
           A6           0.01710   0.00014   0.02134   0.03083   0.01410
           A7           0.00525   0.00598   0.00810   0.01234   0.01662
           A8           0.00667   0.00424   0.00942   0.01406   0.01417
           D1           0.00311   0.00094   0.00413   0.00606   0.00447
           D2          -0.00954  -0.00343  -0.01279  -0.01883  -0.01481
           D3           0.00666   0.00246   0.00894   0.01317   0.01047
           D4           0.00734   0.00259   0.00982   0.01446   0.01129
           D5           0.00191   0.00074   0.00258   0.00380   0.00308
           D6          -0.01035  -0.00358  -0.01383  -0.02036  -0.01578
                          R6        A1        A2        A3        A4
           R6           0.30541
           A1          -0.00128   0.24975
           A2           0.00317   0.00063   0.24842
           A3           0.00320   0.00061  -0.00158   0.24851
           A4          -0.00597  -0.00116   0.00297   0.00288   0.24452
           A5          -0.00647  -0.00114   0.00316   0.00272  -0.00551
           A6           0.00913   0.00157  -0.00444  -0.00371   0.00764
           A7           0.00413   0.00041  -0.00188  -0.00072   0.00243
           A8           0.00450   0.00056  -0.00210  -0.00115   0.00305
           D1           0.00187   0.00027  -0.00089  -0.00061   0.00141
           D2          -0.00585  -0.00084   0.00277   0.00183  -0.00432
           D3           0.00409   0.00058  -0.00194  -0.00127   0.00301
           D4           0.00448   0.00064  -0.00213  -0.00141   0.00332
           D5           0.00118   0.00017  -0.00056  -0.00036   0.00087
           D6          -0.00631  -0.00091   0.00300   0.00200  -0.00468
                          A5        A6        A7        A8        D1
           A5           0.24570
           A6           0.00550   0.24320
           A7          -0.00157   0.00368   0.26190
           A8          -0.00015   0.00140   0.00902   0.25660
           D1           0.00050  -0.00035   0.00233   0.00158   0.02904
           D2          -0.00123   0.00055  -0.00813  -0.00563  -0.00118
           D3           0.00082  -0.00031   0.00580   0.00403   0.00085
           D4           0.00097  -0.00046   0.00617   0.00426   0.00089
           D5           0.00022  -0.00006   0.00173   0.00121   0.00026
           D6          -0.00141   0.00072  -0.00857  -0.00591  -0.00122
                          D2        D3        D4        D5        D6
           D2           0.03310
           D3          -0.00315   0.03100
           D4          -0.00330   0.00238   0.03392
           D5          -0.00095   0.00068   0.00072   0.03164
           D6           0.00455  -0.00328  -0.00344  -0.00099   0.03617
 ITU=  1  0
 Use linear search instead of GDIIS.
     Eigenvalues ---    0.02873   0.03142   0.14544   0.16468   0.17687
     Eigenvalues ---    0.21209   0.24933   0.25000   0.25724   0.30216
     Eigenvalues ---    0.33893   0.39003   0.45875   0.53067   0.84073
 RFO step:  Lambda=-6.57385423D-03 EMin= 2.87310146D-02
 Quartic linear search produced a step of  1.13588.
 Iteration  1 RMS(Cart)=  0.10463962 RMS(Int)=  0.00840519
 Iteration  2 RMS(Cart)=  0.00881448 RMS(Int)=  0.00571650
 Iteration  3 RMS(Cart)=  0.00011798 RMS(Int)=  0.00571624
 Iteration  4 RMS(Cart)=  0.00000145 RMS(Int)=  0.00571624
 Iteration  5 RMS(Cart)=  0.00000002 RMS(Int)=  0.00571624
 Variable       Old X    -DE/DX   Delta X   Delta X   Delta X     New X
                                 (Linear)    (Quad)   (Total)
    R1        3.21078   0.03799   0.12508   0.03409   0.15918   3.36996
    R2        3.01594  -0.00505   0.00686  -0.02829  -0.02143   2.99451
    R3        3.19131   0.04516   0.14674   0.02755   0.17429   3.36560
    R4        2.86175   0.05657   0.11145   0.00066   0.11211   2.97386
    R5        3.42283   0.02404   0.16282  -0.03355   0.12927   3.55210
    R6        3.37895   0.02139   0.09674   0.02994   0.12668   3.50563
    A1        1.71740  -0.00150   0.02006  -0.00686   0.01348   1.73088
    A2        1.81282  -0.00404  -0.05842  -0.00136  -0.06535   1.74747
    A3        2.00578  -0.00065  -0.04694   0.01564  -0.04460   1.96118
    A4        1.88676   0.01098   0.09875   0.01866   0.11713   2.00389
    A5        2.15585   0.00804   0.06399   0.04508   0.11021   2.26606
    A6        1.85587  -0.01316  -0.07549  -0.07131  -0.15636   1.69951
    A7        2.09636   0.00107   0.07031  -0.07326  -0.00295   2.09342
    A8        2.11906  -0.00322   0.03637  -0.06929  -0.03292   2.08614
    D1       -3.09129   0.00009   0.00581  -0.03507  -0.02823  -3.11952
    D2        1.25284  -0.01005  -0.09209  -0.05231  -0.13872   1.11412
    D3       -0.76702   0.00875   0.07389   0.02704   0.09421  -0.67281
    D4        0.91705   0.00370   0.05933   0.03438   0.08219   0.99923
    D5       -0.89510   0.00329   0.02363   0.03625   0.05953  -0.83557
    D6        3.04015  -0.00524  -0.07440   0.01803  -0.04449   2.99566
         Item               Value     Threshold  Converged?
 Maximum Force            0.056567     0.000450     NO 
 RMS     Force            0.020448     0.000300     NO 
 Maximum Displacement     0.180720     0.001800     NO 
 RMS     Displacement     0.106166     0.001200     NO 
 Predicted change in Energy=-1.027613D-02
 GradGradGradGradGradGradGradGradGradGradGradGradGradGradGradGradGradGrad

                          Input orientation:                          
 ---------------------------------------------------------------------
 Center     Atomic      Atomic             Coordinates (Angstroms)
 Number     Number       Type             X           Y           Z
 ---------------------------------------------------------------------
      1         15           0       -1.320396   -0.374162   -0.110755
      2          8           0       -2.316533   -1.550296   -1.007751
      3          8           0       -0.567856    0.301751   -1.330537
      4          8           0       -0.322777   -1.485002    0.860196
      5          8           0       -2.104503    0.288182    1.082140
      6         17           0        0.709705   -2.768873    0.007520
      7         17           0       -3.503396   -2.674905   -0.080469
 ---------------------------------------------------------------------
                    Distance matrix (angstroms):
                    1          2          3          4          5
     1  P    0.000000
     2  O    1.783306   0.000000
     3  O    1.584627   2.567516   0.000000
     4  O    1.780999   2.732866   2.837580   0.000000
     5  O    1.573697   2.791523   2.860503   2.523487   0.000000
     6  Cl   3.141646   3.416698   3.584870   1.855101   4.291871
     7  Cl   3.171722   1.879692   4.363548   3.523785   3.476844
                    6          7
     6  Cl   0.000000
     7  Cl   4.215067   0.000000
 Stoichiometry    Cl2O4P(1-)
 Framework group  C1[X(Cl2O4P)]
 Deg. of freedom    15
 Full point group                 C1      NOp   1
 Largest Abelian subgroup         C1      NOp   1
 Largest concise Abelian subgroup C1      NOp   1
                         Standard orientation:                         
 ---------------------------------------------------------------------
 Center     Atomic      Atomic             Coordinates (Angstroms)
 Number     Number       Type             X           Y           Z
 ---------------------------------------------------------------------
      1         15           0       -0.034619    1.079757   -0.006183
      2          8           0        0.981866   -0.060455    0.914066
      3          8           0       -0.759742    1.803883    1.202487
      4          8           0       -1.053460   -0.068137   -0.909653
      5          8           0        0.722206    1.693885   -1.241733
      6         17           0       -2.066040   -1.316649    0.016251
      7         17           0        2.147941   -1.221572    0.005596
 ---------------------------------------------------------------------
 Rotational constants (GHZ):      1.5725429      1.1597005      0.8307266
 Standard basis: 6-311G (5D, 7F)
 There are   115 symmetry adapted cartesian basis functions of A   symmetry.
 There are   115 symmetry adapted basis functions of A   symmetry.
   115 basis functions,   230 primitive gaussians,   115 cartesian basis functions
    41 alpha electrons       41 beta electrons
       nuclear repulsion energy       540.9842601096 Hartrees.



 Warning!  P  atom    1 may be hypervalent but has no d functions.



 NAtoms=    7 NActive=    7 NUniq=    7 SFac= 1.00D+00 NAtFMM=   60 NAOKFM=F Big=F
 Integral buffers will be    131072 words long.
 Raffenetti 2 integral format.
 Two-electron integral symmetry is turned on.
 One-electron integrals computed using PRISM.
 NBasis=   115 RedAO= T EigKep=  1.55D-02  NBF=   115
 NBsUse=   115 1.00D-06 EigRej= -1.00D+00 NBFU=   115
 Initial guess from the checkpoint file:  "HCl2PO4-A.chk"
 B after Tr=     0.000000    0.000000    0.000000
         Rot=    0.999764    0.021338   -0.001229   -0.003831 Ang=   2.49 deg.
 ExpMin= 6.85D-02 ExpMax= 1.06D+05 ExpMxC= 3.62D+03 IAcc=2 IRadAn=         4 AccDes= 0.00D+00
 Harris functional with IExCor=  402 and IRadAn=       4 diagonalized for initial guess.
 HarFok:  IExCor=  402 AccDes= 0.00D+00 IRadAn=         4 IDoV= 1 UseB2=F ITyADJ=14
 ICtDFT=  3500011 ScaDFX=  1.000000  1.000000  1.000000  1.000000
 FoFCou: FMM=F IPFlag=           0 FMFlag=      100000 FMFlg1=           0
         NFxFlg=           0 DoJE=T BraDBF=F KetDBF=T FulRan=T
         wScrn=  0.000000 ICntrl=     500 IOpCl=  0 I1Cent=   200000004 NGrid=           0
         NMat0=    1 NMatS0=      1 NMatT0=    0 NMatD0=    1 NMtDS0=    0 NMtDT0=    0
 Petite list used in FoFCou.
 Keep R1 ints in memory in canonical form, NReq=23243470.
 Requested convergence on RMS density matrix=1.00D-08 within 128 cycles.
 Requested convergence on MAX density matrix=1.00D-06.
 Requested convergence on             energy=1.00D-06.
 No special actions if energy rises.
 Integral accuracy reduced to 1.0D-05 until final iterations.
 Initial convergence to 1.0D-05 achieved.  Increase integral accuracy.
 SCF Done:  E(RB3LYP) =  -1562.62026639     A.U. after   16 cycles
            NFock= 16  Conv=0.83D-08     -V/T= 2.0021
 Calling FoFJK, ICntrl=      2127 FMM=F ISym2X=0 I1Cent= 0 IOpClX= 0 NMat=1 NMatS=1 NMatT=0.
 ***** Axes restored to original set *****
 -------------------------------------------------------------------
 Center     Atomic                   Forces (Hartrees/Bohr)
 Number     Number              X              Y              Z
 -------------------------------------------------------------------
      1       15          -0.001424916    0.002180579   -0.001966186
      2        8          -0.008417556   -0.008273993   -0.007796315
      3        8          -0.002132074   -0.001360496    0.003183790
      4        8           0.005453628   -0.003666206    0.007672673
      5        8          -0.000444736    0.006496716    0.002659039
      6       17           0.001640476   -0.000591256   -0.002008003
      7       17           0.005325178    0.005214656   -0.001744999
 -------------------------------------------------------------------
 Cartesian Forces:  Max     0.008417556 RMS     0.004600610

 GradGradGradGradGradGradGradGradGradGradGradGradGradGradGradGradGradGrad
 Berny optimization.
 Using GEDIIS/GDIIS optimizer.
 FormGI is forming the generalized inverse of G from B-inverse, IUseBI=4.
 Internal  Forces:  Max     0.009703750 RMS     0.004913867
 Search for a local minimum.
 Step number   3 out of a maximum of   30
 All quantities printed in internal units (Hartrees-Bohrs-Radians)
 Mixed Optimization -- RFO/linear search
 Update second derivatives using D2CorX and points    2    3
 DE= -1.62D-02 DEPred=-1.03D-02 R= 1.58D+00
 TightC=F SS=  1.41D+00  RLast= 4.48D-01 DXNew= 8.4853D-01 1.3435D+00
 Trust test= 1.58D+00 RLast= 4.48D-01 DXMaxT set to 8.49D-01
 The second derivative matrix:
                          R1        R2        R3        R4        R5
           R1           0.38976
           R2           0.00953   0.52867
           R3          -0.06012   0.01234   0.40403
           R4          -0.06826   0.01650  -0.07986   0.81629
           R5          -0.02106   0.01284  -0.02241  -0.01707   0.33169
           R6          -0.02653   0.00590  -0.03100  -0.03343  -0.00863
           A1          -0.00244   0.00058  -0.00289  -0.00363  -0.00049
           A2           0.00894  -0.00250   0.01038   0.01057   0.00091
           A3           0.00785  -0.00150   0.00933   0.01115   0.00272
           A4          -0.02035   0.00411  -0.02396  -0.02702  -0.00732
           A5          -0.01888   0.00168  -0.02282  -0.02670  -0.01117
           A6           0.02799  -0.00158   0.03403   0.04042   0.01902
           A7           0.00548   0.00640   0.00851   0.01574   0.01898
           A8           0.00690   0.00424   0.00969   0.01455   0.01447
           D1           0.00000   0.00120   0.00042   0.00164   0.00188
           D2          -0.00567  -0.00440  -0.00840  -0.01799  -0.01486
           D3           0.00710   0.00303   0.00966   0.01807   0.01385
           D4           0.00100   0.00343   0.00239   0.00771   0.00761
           D5           0.00115   0.00100   0.00173   0.00409   0.00341
           D6          -0.00628  -0.00447  -0.00917  -0.01845  -0.01512
                          R6        A1        A2        A3        A4
           R6           0.29815
           A1          -0.00111   0.24980
           A2           0.00416   0.00041   0.24902
           A3           0.00385   0.00050  -0.00134   0.24860
           A4          -0.01036  -0.00101   0.00338   0.00319   0.24191
           A5          -0.01002  -0.00099   0.00342   0.00294  -0.00760
           A6           0.01524   0.00145  -0.00540  -0.00431   0.01136
           A7           0.00459   0.00066  -0.00288  -0.00118   0.00295
           A8           0.00465   0.00058  -0.00221  -0.00121   0.00316
           D1          -0.00005   0.00018  -0.00010  -0.00020   0.00011
           D2          -0.00394  -0.00107   0.00321   0.00198  -0.00334
           D3           0.00480   0.00093  -0.00336  -0.00193   0.00377
           D4           0.00081   0.00062  -0.00121  -0.00090   0.00099
           D5           0.00085   0.00025  -0.00079  -0.00046   0.00073
           D6          -0.00420  -0.00108   0.00315   0.00201  -0.00351
                          A5        A6        A7        A8        D1
           A5           0.24403
           A6           0.00853   0.23808
           A7          -0.00106   0.00345   0.26307
           A8          -0.00005   0.00129   0.00912   0.25661
           D1          -0.00060   0.00118   0.00178   0.00156   0.02891
           D2          -0.00051  -0.00118  -0.00915  -0.00575  -0.00017
           D3           0.00157  -0.00068   0.00744   0.00417   0.00009
           D4          -0.00095   0.00256   0.00587   0.00429   0.00022
           D5           0.00014   0.00027   0.00210   0.00125  -0.00003
           D6          -0.00051  -0.00113  -0.00927  -0.00601  -0.00035
                          D2        D3        D4        D5        D6
           D2           0.03328
           D3          -0.00460   0.03331
           D4          -0.00194   0.00199   0.03230
           D5          -0.00113   0.00121   0.00040   0.03172
           D6           0.00442  -0.00428  -0.00212  -0.00106   0.03582
 ITU=  1  1  0
 Use linear search instead of GDIIS.
     Eigenvalues ---    0.02869   0.03121   0.13832   0.15978   0.16731
     Eigenvalues ---    0.20112   0.24587   0.25021   0.25150   0.28487
     Eigenvalues ---    0.33407   0.37058   0.45730   0.53094   0.84137
 RFO step:  Lambda=-1.73639506D-03 EMin= 2.86895842D-02
 Quartic linear search produced a step of  0.01697.
 Iteration  1 RMS(Cart)=  0.03513562 RMS(Int)=  0.00048763
 Iteration  2 RMS(Cart)=  0.00048561 RMS(Int)=  0.00019778
 Iteration  3 RMS(Cart)=  0.00000012 RMS(Int)=  0.00019778
 Variable       Old X    -DE/DX   Delta X   Delta X   Delta X     New X
                                 (Linear)    (Quad)   (Total)
    R1        3.36996   0.00853   0.00270   0.02533   0.02803   3.39799
    R2        2.99451  -0.00404  -0.00036  -0.00750  -0.00786   2.98665
    R3        3.36560   0.00970   0.00296   0.02735   0.03030   3.39590
    R4        2.97386   0.00497   0.00190   0.01026   0.01216   2.98602
    R5        3.55210  -0.00733   0.00219  -0.01549  -0.01329   3.53881
    R6        3.50563   0.00225   0.00215   0.01198   0.01413   3.51977
    A1        1.73088  -0.00318   0.00023  -0.01437  -0.01410   1.71678
    A2        1.74747   0.00640  -0.00111   0.02805   0.02671   1.77418
    A3        1.96118   0.00458  -0.00076   0.02385   0.02274   1.98392
    A4        2.00389  -0.00256   0.00199  -0.00924  -0.00726   1.99663
    A5        2.26606  -0.00373   0.00187  -0.02188  -0.01999   2.24607
    A6        1.69951   0.00160  -0.00265   0.00866   0.00554   1.70505
    A7        2.09342  -0.00775  -0.00005  -0.02788  -0.02793   2.06549
    A8        2.08614  -0.00375  -0.00056  -0.01337  -0.01393   2.07221
    D1       -3.11952   0.00065  -0.00048   0.00074   0.00029  -3.11923
    D2        1.11412   0.00248  -0.00235   0.00686   0.00484   1.11896
    D3       -0.67281  -0.00350   0.00160  -0.02223  -0.02100  -0.69381
    D4        0.99923  -0.00156   0.00139   0.01833   0.01945   1.01868
    D5       -0.83557  -0.00051   0.00101   0.02286   0.02390  -0.81166
    D6        2.99566   0.00503  -0.00075   0.05160   0.05109   3.04674
         Item               Value     Threshold  Converged?
 Maximum Force            0.009704     0.000450     NO 
 RMS     Force            0.004914     0.000300     NO 
 Maximum Displacement     0.087843     0.001800     NO 
 RMS     Displacement     0.035100     0.001200     NO 
 Predicted change in Energy=-8.841281D-04
 GradGradGradGradGradGradGradGradGradGradGradGradGradGradGradGradGradGrad

                          Input orientation:                          
 ---------------------------------------------------------------------
 Center     Atomic      Atomic             Coordinates (Angstroms)
 Number     Number       Type             X           Y           Z
 ---------------------------------------------------------------------
      1         15           0       -1.329862   -0.391785   -0.105675
      2          8           0       -2.340399   -1.554612   -1.033012
      3          8           0       -0.575819    0.278593   -1.322182
      4          8           0       -0.313044   -1.499193    0.878735
      5          8           0       -2.097645    0.305924    1.086187
      6         17           0        0.756189   -2.748200    0.003562
      7         17           0       -3.525177   -2.654030   -0.087271
 ---------------------------------------------------------------------
                    Distance matrix (angstroms):
                    1          2          3          4          5
     1  P    0.000000
     2  O    1.798140   0.000000
     3  O    1.580468   2.560860   0.000000
     4  O    1.797035   2.787116   2.841410   0.000000
     5  O    1.580134   2.830464   2.849025   2.546818   0.000000
     6  Cl   3.149005   3.476779   3.562768   1.862580   4.317883
     7  Cl   3.152381   1.872657   4.338663   3.547480   3.489439
                    6          7
     6  Cl   0.000000
     7  Cl   4.283365   0.000000
 Stoichiometry    Cl2O4P(1-)
 Framework group  C1[X(Cl2O4P)]
 Deg. of freedom    15
 Full point group                 C1      NOp   1
 Largest Abelian subgroup         C1      NOp   1
 Largest concise Abelian subgroup C1      NOp   1
                         Standard orientation:                         
 ---------------------------------------------------------------------
 Center     Atomic      Atomic             Coordinates (Angstroms)
 Number     Number       Type             X           Y           Z
 ---------------------------------------------------------------------
      1         15           0       -0.004520    1.059129   -0.001355
      2          8           0        1.012023   -0.093744    0.931828
      3          8           0       -0.711607    1.778914    1.215121
      4          8           0       -1.068175   -0.058442   -0.922774
      5          8           0        0.740625    1.707084   -1.234942
      6         17           0       -2.133219   -1.261311    0.019559
      7         17           0        2.149977   -1.242067   -0.013296
 ---------------------------------------------------------------------
 Rotational constants (GHZ):      1.5928800      1.1285463      0.8230775
 Standard basis: 6-311G (5D, 7F)
 There are   115 symmetry adapted cartesian basis functions of A   symmetry.
 There are   115 symmetry adapted basis functions of A   symmetry.
   115 basis functions,   230 primitive gaussians,   115 cartesian basis functions
    41 alpha electrons       41 beta electrons
       nuclear repulsion energy       538.9614418504 Hartrees.



 Warning!  P  atom    1 may be hypervalent but has no d functions.



 NAtoms=    7 NActive=    7 NUniq=    7 SFac= 1.00D+00 NAtFMM=   60 NAOKFM=F Big=F
 Integral buffers will be    131072 words long.
 Raffenetti 2 integral format.
 Two-electron integral symmetry is turned on.
 One-electron integrals computed using PRISM.
 NBasis=   115 RedAO= T EigKep=  1.60D-02  NBF=   115
 NBsUse=   115 1.00D-06 EigRej= -1.00D+00 NBFU=   115
 Initial guess from the checkpoint file:  "HCl2PO4-A.chk"
 B after Tr=     0.000000    0.000000    0.000000
         Rot=    0.999942   -0.004251   -0.002732    0.009500 Ang=  -1.23 deg.
 ExpMin= 6.85D-02 ExpMax= 1.06D+05 ExpMxC= 3.62D+03 IAcc=2 IRadAn=         4 AccDes= 0.00D+00
 Harris functional with IExCor=  402 and IRadAn=       4 diagonalized for initial guess.
 HarFok:  IExCor=  402 AccDes= 0.00D+00 IRadAn=         4 IDoV= 1 UseB2=F ITyADJ=14
 ICtDFT=  3500011 ScaDFX=  1.000000  1.000000  1.000000  1.000000
 FoFCou: FMM=F IPFlag=           0 FMFlag=      100000 FMFlg1=           0
         NFxFlg=           0 DoJE=T BraDBF=F KetDBF=T FulRan=T
         wScrn=  0.000000 ICntrl=     500 IOpCl=  0 I1Cent=   200000004 NGrid=           0
         NMat0=    1 NMatS0=      1 NMatT0=    0 NMatD0=    1 NMtDS0=    0 NMtDT0=    0
 Petite list used in FoFCou.
 Keep R1 ints in memory in canonical form, NReq=23243470.
 Requested convergence on RMS density matrix=1.00D-08 within 128 cycles.
 Requested convergence on MAX density matrix=1.00D-06.
 Requested convergence on             energy=1.00D-06.
 No special actions if energy rises.
 Integral accuracy reduced to 1.0D-05 until final iterations.
 Initial convergence to 1.0D-05 achieved.  Increase integral accuracy.
 SCF Done:  E(RB3LYP) =  -1562.62143566     A.U. after   15 cycles
            NFock= 15  Conv=0.35D-08     -V/T= 2.0022
 Calling FoFJK, ICntrl=      2127 FMM=F ISym2X=0 I1Cent= 0 IOpClX= 0 NMat=1 NMatS=1 NMatT=0.
 ***** Axes restored to original set *****
 -------------------------------------------------------------------
 Center     Atomic                   Forces (Hartrees/Bohr)
 Number     Number              X              Y              Z
 -------------------------------------------------------------------
      1       15          -0.001428543    0.004065212    0.000964263
      2        8          -0.004605454   -0.004703747   -0.002157676
      3        8          -0.000190296   -0.000598401    0.000664105
      4        8           0.002638581   -0.003253533    0.003220950
      5        8           0.000668394    0.001056775   -0.000750388
      6       17           0.000027425    0.000812352   -0.000601164
      7       17           0.002889893    0.002621341   -0.001340091
 -------------------------------------------------------------------
 Cartesian Forces:  Max     0.004703747 RMS     0.002354452

 GradGradGradGradGradGradGradGradGradGradGradGradGradGradGradGradGradGrad
 Berny optimization.
 Using GEDIIS/GDIIS optimizer.
 FormGI is forming the generalized inverse of G from B-inverse, IUseBI=4.
 Internal  Forces:  Max     0.004429426 RMS     0.001999881
 Search for a local minimum.
 Step number   4 out of a maximum of   30
 All quantities printed in internal units (Hartrees-Bohrs-Radians)
 Mixed Optimization -- RFO/linear search
 Update second derivatives using D2CorX and points    2    3    4
 DE= -1.17D-03 DEPred=-8.84D-04 R= 1.32D+00
 TightC=F SS=  1.41D+00  RLast= 9.59D-02 DXNew= 1.4270D+00 2.8777D-01
 Trust test= 1.32D+00 RLast= 9.59D-02 DXMaxT set to 8.49D-01
 The second derivative matrix:
                          R1        R2        R3        R4        R5
           R1           0.36362
           R2           0.01664   0.52818
           R3          -0.08878   0.01972   0.37273
           R4          -0.07091   0.01214  -0.08122   0.83563
           R5           0.00246   0.00460   0.00400  -0.00659   0.31434
           R6          -0.02762   0.00394  -0.03151  -0.02491  -0.00413
           A1           0.00564  -0.00083   0.00576  -0.00542  -0.00862
           A2          -0.00561  -0.00051  -0.00505   0.01562   0.01617
           A3          -0.01048   0.00380  -0.01091   0.00752   0.01822
           A4          -0.00856  -0.00017  -0.01068  -0.02130  -0.01588
           A5           0.00097  -0.00484  -0.00068  -0.01980  -0.02673
           A6           0.01505   0.00385   0.01925   0.03146   0.02737
           A7           0.02484   0.00167   0.02964   0.01651   0.00148
           A8           0.02318  -0.00213   0.02814   0.02375   0.00294
           D1           0.00482  -0.00165   0.00616   0.00782  -0.00023
           D2          -0.00046  -0.00769  -0.00216  -0.01080  -0.01709
           D3          -0.00061   0.00813   0.00034   0.00644   0.01669
           D4          -0.00723   0.00801  -0.00732  -0.00176   0.01167
           D5          -0.00689   0.00516  -0.00766  -0.00405   0.00778
           D6           0.00000  -0.00979  -0.00125  -0.00472  -0.01581
                          R6        A1        A2        A3        A4
           R6           0.30191
           A1          -0.00194   0.24775
           A2           0.00648   0.00380   0.24369
           A3           0.00233   0.00628  -0.01183   0.23605
           A4          -0.00790  -0.00517   0.01123   0.01094   0.23771
           A5          -0.00706  -0.00765   0.01578   0.01626  -0.01532
           A6           0.01135   0.00641  -0.01500  -0.01262   0.01538
           A7           0.00483  -0.00498   0.00703   0.01227  -0.00590
           A8           0.00866  -0.00545   0.00937   0.00953  -0.00244
           D1           0.00267  -0.00212   0.00461   0.00273  -0.00080
           D2          -0.00076  -0.00370   0.00865   0.00520  -0.00427
           D3          -0.00033   0.00492  -0.01169  -0.00658   0.00491
           D4          -0.00335   0.00441  -0.00891  -0.00602   0.00281
           D5          -0.00272   0.00378  -0.00788  -0.00552   0.00274
           D6           0.00187  -0.00496   0.01150   0.00549  -0.00351
                          A5        A6        A7        A8        D1
           A5           0.23035
           A6           0.01636   0.23470
           A7          -0.01582   0.01339   0.24917
           A8          -0.01052   0.00640  -0.00340   0.24938
           D1          -0.00291   0.00137  -0.00225   0.00075   0.02970
           D2          -0.00297  -0.00112  -0.01367  -0.00643   0.00087
           D3           0.00494  -0.00037   0.01415   0.00480  -0.00173
           D4           0.00327   0.00179   0.01269   0.00609  -0.00082
           D5           0.00450  -0.00089   0.00864   0.00343  -0.00071
           D6          -0.00227  -0.00301  -0.01511  -0.00488   0.00240
                          D2        D3        D4        D5        D6
           D2           0.03467
           D3          -0.00697   0.03734
           D4          -0.00336   0.00451   0.03361
           D5          -0.00211   0.00302   0.00117   0.03205
           D6           0.00788  -0.01003  -0.00611  -0.00418   0.04347
 ITU=  1  1  1  0
 Use linear search instead of GDIIS.
     Eigenvalues ---    0.02808   0.02941   0.13739   0.16162   0.16896
     Eigenvalues ---    0.17626   0.21734   0.24995   0.25889   0.28875
     Eigenvalues ---    0.31512   0.34045   0.45708   0.53133   0.85824
 RFO step:  Lambda=-1.64810563D-04 EMin= 2.80758968D-02
 Quartic linear search produced a step of  0.60644.
 Iteration  1 RMS(Cart)=  0.02634295 RMS(Int)=  0.00054031
 Iteration  2 RMS(Cart)=  0.00050329 RMS(Int)=  0.00011266
 Iteration  3 RMS(Cart)=  0.00000020 RMS(Int)=  0.00011266
 Variable       Old X    -DE/DX   Delta X   Delta X   Delta X     New X
                                 (Linear)    (Quad)   (Total)
    R1        3.39799   0.00410   0.01700   0.00685   0.02385   3.42184
    R2        2.98665  -0.00086  -0.00477   0.00129  -0.00348   2.98317
    R3        3.39590   0.00443   0.01838   0.00655   0.02493   3.42083
    R4        2.98602  -0.00042   0.00738  -0.00238   0.00500   2.99102
    R5        3.53881  -0.00402  -0.00806  -0.00673  -0.01479   3.52402
    R6        3.51977  -0.00023   0.00857  -0.00338   0.00520   3.52496
    A1        1.71678  -0.00053  -0.00855   0.00260  -0.00591   1.71087
    A2        1.77418   0.00075   0.01620  -0.00951   0.00656   1.78074
    A3        1.98392   0.00114   0.01379  -0.00266   0.01096   1.99488
    A4        1.99663  -0.00114  -0.00441  -0.00170  -0.00611   1.99051
    A5        2.24607  -0.00081  -0.01212   0.00513  -0.00699   2.23908
    A6        1.70505   0.00096   0.00336   0.00196   0.00503   1.71007
    A7        2.06549  -0.00296  -0.01694  -0.00295  -0.01989   2.04560
    A8        2.07221  -0.00289  -0.00845  -0.01083  -0.01927   2.05294
    D1       -3.11923  -0.00030   0.00018  -0.01076  -0.01056  -3.12979
    D2        1.11896   0.00086   0.00293  -0.00719  -0.00404   1.11492
    D3       -0.69381  -0.00098  -0.01273  -0.00379  -0.01675  -0.71056
    D4        1.01868  -0.00016   0.01179   0.02240   0.03408   1.05276
    D5       -0.81166   0.00044   0.01450   0.02497   0.03950  -0.77217
    D6        3.04674   0.00152   0.03098   0.01779   0.04886   3.09560
         Item               Value     Threshold  Converged?
 Maximum Force            0.004429     0.000450     NO 
 RMS     Force            0.002000     0.000300     NO 
 Maximum Displacement     0.051894     0.001800     NO 
 RMS     Displacement     0.026420     0.001200     NO 
 Predicted change in Energy=-2.323787D-04
 GradGradGradGradGradGradGradGradGradGradGradGradGradGradGradGradGradGrad

                          Input orientation:                          
 ---------------------------------------------------------------------
 Center     Atomic      Atomic             Coordinates (Angstroms)
 Number     Number       Type             X           Y           Z
 ---------------------------------------------------------------------
      1         15           0       -1.335660   -0.400489   -0.101787
      2          8           0       -2.356424   -1.559415   -1.047188
      3          8           0       -0.568780    0.257716   -1.314519
      4          8           0       -0.318980   -1.519050    0.894259
      5          8           0       -2.096719    0.319727    1.084498
      6         17           0        0.783650   -2.721655   -0.009844
      7         17           0       -3.532843   -2.640139   -0.085075
 ---------------------------------------------------------------------
                    Distance matrix (angstroms):
                    1          2          3          4          5
     1  P    0.000000
     2  O    1.810760   0.000000
     3  O    1.578626   2.563026   0.000000
     4  O    1.810227   2.814609   2.845698   0.000000
     5  O    1.582780   2.853542   2.844947   2.564692   0.000000
     6  Cl   3.144478   3.505275   3.522485   1.865330   4.329448
     7  Cl   3.137502   1.864829   4.323744   3.541870   3.491584
                    6          7
     6  Cl   0.000000
     7  Cl   4.317918   0.000000
 Stoichiometry    Cl2O4P(1-)
 Framework group  C1[X(Cl2O4P)]
 Deg. of freedom    15
 Full point group                 C1      NOp   1
 Largest Abelian subgroup         C1      NOp   1
 Largest concise Abelian subgroup C1      NOp   1
                         Standard orientation:                         
 ---------------------------------------------------------------------
 Center     Atomic      Atomic             Coordinates (Angstroms)
 Number     Number       Type             X           Y           Z
 ---------------------------------------------------------------------
      1         15           0        0.005644    1.046416    0.001733
      2          8           0        1.027723   -0.112144    0.946161
      3          8           0       -0.715049    1.747284    1.218879
      4          8           0       -1.059721   -0.072665   -0.941441
      5          8           0        0.749075    1.724040   -1.220285
      6         17           0       -2.161830   -1.231635    0.018559
      7         17           0        2.155896   -1.238270   -0.021647
 ---------------------------------------------------------------------
 Rotational constants (GHZ):      1.6129164      1.1129880      0.8214921
 Standard basis: 6-311G (5D, 7F)
 There are   115 symmetry adapted cartesian basis functions of A   symmetry.
 There are   115 symmetry adapted basis functions of A   symmetry.
   115 basis functions,   230 primitive gaussians,   115 cartesian basis functions
    41 alpha electrons       41 beta electrons
       nuclear repulsion energy       538.2955316646 Hartrees.



 Warning!  P  atom    1 may be hypervalent but has no d functions.



 NAtoms=    7 NActive=    7 NUniq=    7 SFac= 1.00D+00 NAtFMM=   60 NAOKFM=F Big=F
 Integral buffers will be    131072 words long.
 Raffenetti 2 integral format.
 Two-electron integral symmetry is turned on.
 One-electron integrals computed using PRISM.
 NBasis=   115 RedAO= T EigKep=  1.62D-02  NBF=   115
 NBsUse=   115 1.00D-06 EigRej= -1.00D+00 NBFU=   115
 Initial guess from the checkpoint file:  "HCl2PO4-A.chk"
 B after Tr=     0.000000    0.000000    0.000000
         Rot=    0.999992   -0.003201    0.000328    0.002301 Ang=  -0.45 deg.
 ExpMin= 6.85D-02 ExpMax= 1.06D+05 ExpMxC= 3.62D+03 IAcc=2 IRadAn=         4 AccDes= 0.00D+00
 Harris functional with IExCor=  402 and IRadAn=       4 diagonalized for initial guess.
 HarFok:  IExCor=  402 AccDes= 0.00D+00 IRadAn=         4 IDoV= 1 UseB2=F ITyADJ=14
 ICtDFT=  3500011 ScaDFX=  1.000000  1.000000  1.000000  1.000000
 FoFCou: FMM=F IPFlag=           0 FMFlag=      100000 FMFlg1=           0
         NFxFlg=           0 DoJE=T BraDBF=F KetDBF=T FulRan=T
         wScrn=  0.000000 ICntrl=     500 IOpCl=  0 I1Cent=   200000004 NGrid=           0
         NMat0=    1 NMatS0=      1 NMatT0=    0 NMatD0=    1 NMtDS0=    0 NMtDT0=    0
 Petite list used in FoFCou.
 Keep R1 ints in memory in canonical form, NReq=23243470.
 Requested convergence on RMS density matrix=1.00D-08 within 128 cycles.
 Requested convergence on MAX density matrix=1.00D-06.
 Requested convergence on             energy=1.00D-06.
 No special actions if energy rises.
 Integral accuracy reduced to 1.0D-05 until final iterations.
 Initial convergence to 1.0D-05 achieved.  Increase integral accuracy.
 SCF Done:  E(RB3LYP) =  -1562.62173254     A.U. after   14 cycles
            NFock= 14  Conv=0.66D-08     -V/T= 2.0022
 Calling FoFJK, ICntrl=      2127 FMM=F ISym2X=0 I1Cent= 0 IOpClX= 0 NMat=1 NMatS=1 NMatT=0.
 ***** Axes restored to original set *****
 -------------------------------------------------------------------
 Center     Atomic                   Forces (Hartrees/Bohr)
 Number     Number              X              Y              Z
 -------------------------------------------------------------------
      1       15          -0.000858434    0.003887656    0.001811054
      2        8          -0.001660124   -0.001680293    0.000762775
      3        8           0.000499408   -0.000132167   -0.000150594
      4        8           0.001068405   -0.002282062    0.000032748
      5        8           0.000877400   -0.001487338   -0.002238967
      6       17          -0.000657837    0.001121414    0.000467123
      7       17           0.000731182    0.000572790   -0.000684139
 -------------------------------------------------------------------
 Cartesian Forces:  Max     0.003887656 RMS     0.001433712

 GradGradGradGradGradGradGradGradGradGradGradGradGradGradGradGradGradGrad
 Berny optimization.
 Using GEDIIS/GDIIS optimizer.
 FormGI is forming the generalized inverse of G from B-inverse, IUseBI=4.
 Internal  Forces:  Max     0.002775857 RMS     0.000985312
 Search for a local minimum.
 Step number   5 out of a maximum of   30
 All quantities printed in internal units (Hartrees-Bohrs-Radians)
 Mixed Optimization -- En-DIIS/RFO-DIIS
 Update second derivatives using D2CorX and points    2    3    4    5
 DE= -2.97D-04 DEPred=-2.32D-04 R= 1.28D+00
 TightC=F SS=  1.41D+00  RLast= 8.98D-02 DXNew= 1.4270D+00 2.6944D-01
 Trust test= 1.28D+00 RLast= 8.98D-02 DXMaxT set to 8.49D-01
 The second derivative matrix:
                          R1        R2        R3        R4        R5
           R1           0.35040
           R2           0.01655   0.53047
           R3          -0.10288   0.01933   0.35770
           R4          -0.05568   0.00271  -0.06411   0.85720
           R5           0.01268   0.00520   0.01439  -0.02478   0.30108
           R6          -0.02071  -0.00037  -0.02371  -0.01482  -0.01209
           A1           0.00164   0.00270   0.00094  -0.01794  -0.00611
           A2           0.00382  -0.00739   0.00612   0.03813   0.01016
           A3          -0.00374  -0.00117  -0.00275   0.02715   0.01617
           A4          -0.00490  -0.00033  -0.00698  -0.02726  -0.02158
           A5          -0.00720  -0.00061  -0.01036  -0.03637  -0.02509
           A6           0.01189   0.00483   0.01603   0.03464   0.03374
           A7           0.02696   0.00590   0.03113  -0.00667  -0.00211
           A8           0.03098  -0.00239   0.03629   0.01324  -0.00595
           D1           0.00285  -0.00172   0.00392   0.00718  -0.00074
           D2          -0.00287  -0.00868  -0.00469  -0.00722  -0.01696
           D3           0.00624   0.00857   0.00782   0.00325   0.01479
           D4          -0.00907   0.01037  -0.00944  -0.00651   0.01575
           D5          -0.00702   0.00593  -0.00774  -0.00370   0.01032
           D6          -0.01035  -0.01027  -0.01251   0.00109  -0.01204
                          R6        A1        A2        A3        A4
           R6           0.30661
           A1          -0.00756   0.25230
           A2           0.01656  -0.00448   0.25847
           A3           0.01098   0.00009  -0.00090   0.24417
           A4          -0.01043  -0.00489   0.01034   0.01124   0.23532
           A5          -0.01421  -0.00307   0.00823   0.01075  -0.01575
           A6           0.01254   0.00751  -0.01691  -0.01496   0.01793
           A7          -0.00557   0.00190  -0.00652   0.00315  -0.00822
           A8           0.00407  -0.00396   0.00562   0.00761  -0.00592
           D1           0.00254  -0.00255   0.00584   0.00347  -0.00105
           D2           0.00103  -0.00530   0.01224   0.00712  -0.00398
           D3          -0.00209   0.00660  -0.01612  -0.00878   0.00410
           D4          -0.00571   0.00738  -0.01463  -0.01015   0.00398
           D5          -0.00275   0.00470  -0.00982  -0.00684   0.00362
           D6           0.00489  -0.00751   0.01814   0.00907  -0.00202
                          A5        A6        A7        A8        D1
           A5           0.23316
           A6           0.01870   0.23226
           A7          -0.00833   0.01742   0.25536
           A8          -0.00819   0.00978  -0.00648   0.24356
           D1          -0.00395   0.00166  -0.00257   0.00129   0.02965
           D2          -0.00470  -0.00188  -0.01515  -0.00512   0.00128
           D3           0.00763   0.00062   0.01424   0.00141  -0.00186
           D4           0.00660   0.00152   0.01801   0.00758  -0.00127
           D5           0.00571  -0.00150   0.01071   0.00413  -0.00094
           D6          -0.00669  -0.00461  -0.01481   0.00038   0.00226
                          D2        D3        D4        D5        D6
           D2           0.03595
           D3          -0.00812   0.03756
           D4          -0.00531   0.00675   0.03583
           D5          -0.00320   0.00434   0.00201   0.03245
           D6           0.00889  -0.00926  -0.00905  -0.00576   0.04096
 ITU=  1  1  1  1  0
 Use linear search instead of GDIIS.
     Eigenvalues ---    0.02241   0.02893   0.13583   0.16099   0.16962
     Eigenvalues ---    0.18062   0.21503   0.24974   0.27570   0.29053
     Eigenvalues ---    0.30022   0.34058   0.45705   0.53424   0.87535
 RFO step:  Lambda=-5.84528917D-05 EMin= 2.24147836D-02
 Quartic linear search produced a step of  0.16624.
 Iteration  1 RMS(Cart)=  0.00958772 RMS(Int)=  0.00008854
 Iteration  2 RMS(Cart)=  0.00009128 RMS(Int)=  0.00000463
 Iteration  3 RMS(Cart)=  0.00000001 RMS(Int)=  0.00000463
 Variable       Old X    -DE/DX   Delta X   Delta X   Delta X     New X
                                 (Linear)    (Quad)   (Total)
    R1        3.42184   0.00117   0.00396   0.00329   0.00725   3.42910
    R2        2.98317   0.00030  -0.00058   0.00035  -0.00022   2.98295
    R3        3.42083   0.00120   0.00414   0.00324   0.00739   3.42822
    R4        2.99102  -0.00278   0.00083  -0.00283  -0.00200   2.98902
    R5        3.52402  -0.00113  -0.00246  -0.00349  -0.00595   3.51806
    R6        3.52496  -0.00132   0.00086  -0.00394  -0.00307   3.52189
    A1        1.71087   0.00084  -0.00098   0.00333   0.00235   1.71322
    A2        1.78074  -0.00133   0.00109  -0.00531  -0.00423   1.77651
    A3        1.99488  -0.00081   0.00182  -0.00410  -0.00228   1.99260
    A4        1.99051  -0.00037  -0.00102  -0.00188  -0.00290   1.98761
    A5        2.23908   0.00037  -0.00116   0.00248   0.00132   2.24039
    A6        1.71007   0.00074   0.00084   0.00299   0.00381   1.71388
    A7        2.04560   0.00029  -0.00331   0.00092  -0.00239   2.04321
    A8        2.05294  -0.00086  -0.00320  -0.00326  -0.00646   2.04647
    D1       -3.12979  -0.00044  -0.00176  -0.00440  -0.00616  -3.13594
    D2        1.11492   0.00005  -0.00067  -0.00203  -0.00269   1.11223
    D3       -0.71056   0.00017  -0.00278  -0.00130  -0.00410  -0.71466
    D4        1.05276   0.00066   0.00567   0.01210   0.01776   1.07052
    D5       -0.77217   0.00052   0.00657   0.01166   0.01822  -0.75395
    D6        3.09560  -0.00031   0.00812   0.00728   0.01541   3.11101
         Item               Value     Threshold  Converged?
 Maximum Force            0.002776     0.000450     NO 
 RMS     Force            0.000985     0.000300     NO 
 Maximum Displacement     0.021079     0.001800     NO 
 RMS     Displacement     0.009586     0.001200     NO 
 Predicted change in Energy=-3.506320D-05
 GradGradGradGradGradGradGradGradGradGradGradGradGradGradGradGradGradGrad

                          Input orientation:                          
 ---------------------------------------------------------------------
 Center     Atomic      Atomic             Coordinates (Angstroms)
 Number     Number       Type             X           Y           Z
 ---------------------------------------------------------------------
      1         15           0       -1.336026   -0.400688   -0.100825
      2          8           0       -2.360788   -1.561360   -1.047119
      3          8           0       -0.560832    0.251935   -1.311131
      4          8           0       -0.324217   -1.528280    0.897106
      5          8           0       -2.099535    0.322634    1.080574
      6         17           0        0.789710   -2.710500   -0.016629
      7         17           0       -3.534069   -2.637045   -0.081632
 ---------------------------------------------------------------------
                    Distance matrix (angstroms):
                    1          2          3          4          5
     1  P    0.000000
     2  O    1.814599   0.000000
     3  O    1.578507   2.568576   0.000000
     4  O    1.814136   2.815799   2.846307   0.000000
     5  O    1.581721   2.853903   2.844795   2.571244   0.000000
     6  Cl   3.140235   3.508285   3.503672   1.863703   4.330300
     7  Cl   3.135770   1.861680   4.324120   3.534181   3.488310
                    6          7
     6  Cl   0.000000
     7  Cl   4.324891   0.000000
 Stoichiometry    Cl2O4P(1-)
 Framework group  C1[X(Cl2O4P)]
 Deg. of freedom    15
 Full point group                 C1      NOp   1
 Largest Abelian subgroup         C1      NOp   1
 Largest concise Abelian subgroup C1      NOp   1
                         Standard orientation:                         
 ---------------------------------------------------------------------
 Center     Atomic      Atomic             Coordinates (Angstroms)
 Number     Number       Type             X           Y           Z
 ---------------------------------------------------------------------
      1         15           0        0.003736    1.044619    0.001786
      2          8           0        1.030043   -0.114242    0.948625
      3          8           0       -0.730786    1.736653    1.215561
      4          8           0       -1.051305   -0.085223   -0.947654
      5          8           0        0.751589    1.728817   -1.212476
      6         17           0       -2.163902   -1.227426    0.017172
      7         17           0        2.160822   -1.231240   -0.020657
 ---------------------------------------------------------------------
 Rotational constants (GHZ):      1.6209266      1.1103006      0.8216278
 Standard basis: 6-311G (5D, 7F)
 There are   115 symmetry adapted cartesian basis functions of A   symmetry.
 There are   115 symmetry adapted basis functions of A   symmetry.
   115 basis functions,   230 primitive gaussians,   115 cartesian basis functions
    41 alpha electrons       41 beta electrons
       nuclear repulsion energy       538.3794216485 Hartrees.



 Warning!  P  atom    1 may be hypervalent but has no d functions.



 NAtoms=    7 NActive=    7 NUniq=    7 SFac= 1.00D+00 NAtFMM=   60 NAOKFM=F Big=F
 Integral buffers will be    131072 words long.
 Raffenetti 2 integral format.
 Two-electron integral symmetry is turned on.
 One-electron integrals computed using PRISM.
 NBasis=   115 RedAO= T EigKep=  1.62D-02  NBF=   115
 NBsUse=   115 1.00D-06 EigRej= -1.00D+00 NBFU=   115
 Initial guess from the checkpoint file:  "HCl2PO4-A.chk"
 B after Tr=     0.000000    0.000000    0.000000
         Rot=    0.999999   -0.000469    0.001015   -0.000937 Ang=  -0.17 deg.
 ExpMin= 6.85D-02 ExpMax= 1.06D+05 ExpMxC= 3.62D+03 IAcc=2 IRadAn=         4 AccDes= 0.00D+00
 Harris functional with IExCor=  402 and IRadAn=       4 diagonalized for initial guess.
[...]
   117. RY*(   7)Cl   6                  0.00003     1.74926   
   118. RY*(   8)Cl   6                  0.00001     2.68115   
   119. RY*(   9)Cl   6                  0.00000    24.77540   
   120. RY*(  10)Cl   6                  0.00000   206.41565   
   121. RY*(  11)Cl   6                  0.00001     2.60855   
   122. RY*(  12)Cl   6                  0.00000    24.38839   
   123. RY*(  13)Cl   6                  0.00000     0.96954   
   124. RY*(  14)Cl   6                  0.00001     2.75411   
   125. RY*(  15)Cl   6                  0.00001     0.99896   
   126. RY*(  16)Cl   6                  0.00000    24.70310   
   127. RY*(  17)Cl   6                  0.00000    18.16815   
   128. RY*(   1)Cl   7                  0.00198     0.96578   
   129. RY*(   2)Cl   7                  0.00163     0.98549   
   130. RY*(   3)Cl   7                  0.00100     0.95656   
   131. RY*(   4)Cl   7                  0.00056     0.76623   
   132. RY*(   5)Cl   7                  0.00038     0.56581   
   133. RY*(   6)Cl   7                  0.00006     1.76900   
   134. RY*(   7)Cl   7                  0.00003     1.74885   
   135. RY*(   8)Cl   7                  0.00001     2.68017   
   136. RY*(   9)Cl   7                  0.00000    24.77600   
   137. RY*(  10)Cl   7                  0.00000   206.41543   
   138. RY*(  11)Cl   7                  0.00001     2.60840   
   139. RY*(  12)Cl   7                  0.00000    24.38836   
   140. RY*(  13)Cl   7                  0.00000     0.96954   
   141. RY*(  14)Cl   7                  0.00001     2.75469   
   142. RY*(  15)Cl   7                  0.00001     0.99887   
   143. RY*(  16)Cl   7                  0.00000    24.70398   
   144. RY*(  17)Cl   7                  0.00000    18.16848   
   145. BD*(   1) P   1 - O   2          0.27670     0.22505  147(g),43(g),148(g),42(g)
                                                    149(g),49(g),50(g)
   146. BD*(   1) P   1 - O   3          0.11447     0.41613  148(g),42(g),44(g),46(g)
                                                    147(g),48(g)
   147. BD*(   1) P   1 - O   4          0.27676     0.22500  145(g),43(g),146(g),42(g)
                                                    150(g),49(g),50(g)
   148. BD*(   1) P   1 - O   5          0.11446     0.41617  146(g),42(g),44(g),46(g)
                                                    145(g),48(g)
   149. BD*(   1) O   2 -Cl   7          0.08189     0.04603   
   150. BD*(   1) O   4 -Cl   6          0.08186     0.04612   
       -------------------------------
              Total Lewis   80.83866  ( 98.5837%)
        Valence non-Lewis    0.94613  (  1.1538%)
        Rydberg non-Lewis    0.21521  (  0.2624%)
       -------------------------------
            Total unit  1   82.00000  (100.0000%)
           Charge unit  1   -1.00000
 1\1\GINC-BLADI18\SP\RB3LYP\6-311G(d,p)\Cl2O4P1(1-)\SARARIOP\21-Jun-201
 7\0\\# B3LYP/6-311G** geom=check guess=read pop=nboread\\Title Card Re
 quired\\-1,1\P,0,-1.3355169416,-0.4011662423,-0.1009583433\O,0,-2.3688
 257623,-1.5631131586,-1.0433913149\O,0,-0.5468609952,0.2440719081,-1.3
 060831008\O,0,-0.3347300666,-1.5469955408,0.8949422471\O,0,-2.10482783
 31,0.3210346718,1.0725307092\Cl,0,0.8095577846,-2.6889888557,-0.022495
 1762\Cl,0,-3.5445532058,-2.6281470425,-0.0742010211\\Version=AM64L-G09
 RevD.01\State=1-A\HF=-1562.8123248\RMSD=3.516e-09\Dipole=-0.0201591,-1
 .4183109,0.0329226\Quadrupole=1.0444864,-1.1422861,0.0977996,-0.020697
 3,0.461363,0.0229723\PG=C01 [X(Cl2O4P1)]\\@


 QUANTUM MECHANICS IS BOHRING -- M.S. GORDON
 Job cpu time:       0 days  0 hours  7 minutes 35.5 seconds.
 File lengths (MBytes):  RWF=     10 Int=      0 D2E=      0 Chk=      4 Scr=      1
 Normal termination of Gaussian 09 at Wed Jun 21 09:46:33 2017.
 Initial command:
 /usr/local/gaussian/gaussian09.d1/g09/l1.exe "/scratch/sarariop/HCl2PO4-A.com/Gau-4991.inp" -scrdir="/scratch/sarariop/HCl2PO4-A.com/"
 Default is to use a total of   8 processors:
                                8 via shared-memory
                                1 via Linda
 Entering Link 1 = /usr/local/gaussian/gaussian09.d1/g09/l1.exe PID=     10886.
  
 Copyright (c) 1988,1990,1992,1993,1995,1998,2003,2009,2013,
            Gaussian, Inc.  All Rights Reserved.
  
 This is part of the Gaussian(R) 09 program.  It is based on
 the Gaussian(R) 03 system (copyright 2003, Gaussian, Inc.),
 the Gaussian(R) 98 system (copyright 1998, Gaussian, Inc.),
 the Gaussian(R) 94 system (copyright 1995, Gaussian, Inc.),
 the Gaussian 92(TM) system (copyright 1992, Gaussian, Inc.),
 the Gaussian 90(TM) system (copyright 1990, Gaussian, Inc.),
 the Gaussian 88(TM) system (copyright 1988, Gaussian, Inc.),
 the Gaussian 86(TM) system (copyright 1986, Carnegie Mellon
 University), and the Gaussian 82(TM) system (copyright 1983,
 Carnegie Mellon University). Gaussian is a federally registered
 trademark of Gaussian, Inc.
  
 This software contains proprietary and confidential information,
 including trade secrets, belonging to Gaussian, Inc.
  
 This software is provided under written license and may be
 used, copied, transmitted, or stored only in accord with that
 written license.
  
 The following legend is applicable only to US Government
 contracts under FAR:
  
                    RESTRICTED RIGHTS LEGEND
  
 Use, reproduction and disclosure by the US Government is
 subject to restrictions as set forth in subparagraphs (a)
 and (c) of the Commercial Computer Software - Restricted
 Rights clause in FAR 52.227-19.
  
 Gaussian, Inc.
 340 Quinnipiac St., Bldg. 40, Wallingford CT 06492
  
  
 ---------------------------------------------------------------
 Warning -- This program may not be used in any manner that
 competes with the business of Gaussian, Inc. or will provide
 assistance to any competitor of Gaussian, Inc.  The licensee
 of this program is prohibited from giving any competitor of
 Gaussian, Inc. access to this program.  By using this program,
 the user acknowledges that Gaussian, Inc. is engaged in the
 business of creating and licensing software in the field of
 computational chemistry and represents and warrants to the
 licensee that it is not a competitor of Gaussian, Inc. and that
 it will not use this program in any manner prohibited above.
 ---------------------------------------------------------------
  

 Cite this work as:
 Gaussian 09, Revision D.01,
 M. J. Frisch, G. W. Trucks, H. B. Schlegel, G. E. Scuseria, 
 M. A. Robb, J. R. Cheeseman, G. Scalmani, V. Barone, B. Mennucci, 
 G. A. Petersson, H. Nakatsuji, M. Caricato, X. Li, H. P. Hratchian, 
 A. F. Izmaylov, J. Bloino, G. Zheng, J. L. Sonnenberg, M. Hada, 
 M. Ehara, K. Toyota, R. Fukuda, J. Hasegawa, M. Ishida, T. Nakajima, 
 Y. Honda, O. Kitao, H. Nakai, T. Vreven, J. A. Montgomery, Jr., 
 J. E. Peralta, F. Ogliaro, M. Bearpark, J. J. Heyd, E. Brothers, 
 K. N. Kudin, V. N. Staroverov, T. Keith, R. Kobayashi, J. Normand, 
 K. Raghavachari, A. Rendell, J. C. Burant, S. S. Iyengar, J. Tomasi, 
 M. Cossi, N. Rega, J. M. Millam, M. Klene, J. E. Knox, J. B. Cross, 
 V. Bakken, C. Adamo, J. Jaramillo, R. Gomperts, R. E. Stratmann, 
 O. Yazyev, A. J. Austin, R. Cammi, C. Pomelli, J. W. Ochterski, 
 R. L. Martin, K. Morokuma, V. G. Zakrzewski, G. A. Voth, 
 P. Salvador, J. J. Dannenberg, S. Dapprich, A. D. Daniels, 
 O. Farkas, J. B. Foresman, J. V. Ortiz, J. Cioslowski, 
 and D. J. Fox, Gaussian, Inc., Wallingford CT, 2013.
 
 ******************************************
 Gaussian 09:  AM64L-G09RevD.01 24-Apr-2013
                21-Jun-2017 
 ******************************************
 %chk=HCl2PO4-A.chk
 Default route:  MaxDisk=56GB
 -------------------------------------------------
 # B3LYP/6-311G** geom=check guess=read output=wfx
 -------------------------------------------------
 1/29=2,38=1/1;
 2/12=2,40=1/2;
 3/5=4,6=6,7=101,11=2,14=-4,16=1,25=1,30=1,74=-5,116=-2/1,2,3;
 4/5=1/1;
 5/5=2,38=6/2;
 6/7=2,8=2,9=2,10=2,28=1/1;
 99/5=1,6=200,9=1/99;
 -------------------
 Title Card Required
 -------------------
 Structure from the checkpoint file:  "HCl2PO4-A.chk"
 Charge = -1 Multiplicity = 1
 Redundant internal coordinates found in file.
 P,0,-1.3355169416,-0.4011662423,-0.1009583433
 O,0,-2.3688257623,-1.5631131586,-1.0433913149
 O,0,-0.5468609952,0.2440719081,-1.3060831008
 O,0,-0.3347300666,-1.5469955408,0.8949422471
 O,0,-2.1048278331,0.3210346718,1.0725307092
 Cl,0,0.8095577846,-2.6889888557,-0.0224951762
 Cl,0,-3.5445532058,-2.6281470425,-0.0742010211
 Recover connectivity data from disk.
                          Input orientation:                          
 ---------------------------------------------------------------------
 Center     Atomic      Atomic             Coordinates (Angstroms)
 Number     Number       Type             X           Y           Z
 ---------------------------------------------------------------------
      1         15           0       -1.335517   -0.401166   -0.100958
      2          8           0       -2.368826   -1.563113   -1.043391
      3          8           0       -0.546861    0.244072   -1.306083
      4          8           0       -0.334730   -1.546996    0.894942
      5          8           0       -2.104828    0.321035    1.072531
      6         17           0        0.809558   -2.688989   -0.022495
      7         17           0       -3.544553   -2.628147   -0.074201
 ---------------------------------------------------------------------
                    Distance matrix (angstroms):
                    1          2          3          4          5
     1  P    0.000000
     2  O    1.818249   0.000000
     3  O    1.578175   2.579628   0.000000
     4  O    1.818328   2.809794   2.845599   0.000000
     5  O    1.578129   2.845494   2.844466   2.579597   0.000000
     6  Cl   3.137138   3.523059   3.477113   1.858826   4.330470
     7  Cl   3.136878   1.859022   4.330512   3.522938   3.476417
                    6          7
     6  Cl   0.000000
     7  Cl   4.354843   0.000000
 Stoichiometry    Cl2O4P(1-)
 Framework group  C1[X(Cl2O4P)]
 Deg. of freedom    15
 Full point group                 C1      NOp   1
 Largest Abelian subgroup         C1      NOp   1
 Largest concise Abelian subgroup C1      NOp   1
                         Standard orientation:                         
 ---------------------------------------------------------------------
 Center     Atomic      Atomic             Coordinates (Angstroms)
 Number     Number       Type             X           Y           Z
 ---------------------------------------------------------------------
      1         15           0        0.000193    1.040811   -0.000055
      2          8           0        1.035000   -0.113517    0.950066
      3          8           0       -0.756358    1.725238    1.204032
      4          8           0       -1.035177   -0.113486   -0.949753
      5          8           0        0.757002    1.724325   -1.204438
      6         17           0       -2.177561   -1.217237    0.015612
      7         17           0        2.177171   -1.217624   -0.015519
 ---------------------------------------------------------------------
 Rotational constants (GHZ):      1.6405717      1.1000060      0.8191746
 Standard basis: 6-311G(d,p) (5D, 7F)
 There are   157 symmetry adapted cartesian basis functions of A   symmetry.
 There are   150 symmetry adapted basis functions of A   symmetry.
   150 basis functions,   272 primitive gaussians,   157 cartesian basis functions
    41 alpha electrons       41 beta electrons
       nuclear repulsion energy       538.4161504707 Hartrees.
 NAtoms=    7 NActive=    7 NUniq=    7 SFac= 1.00D+00 NAtFMM=   60 NAOKFM=F Big=F
 Integral buffers will be    131072 words long.
 Raffenetti 2 integral format.
 Two-electron integral symmetry is turned on.
 One-electron integrals computed using PRISM.
 NBasis=   150 RedAO= T EigKep=  1.52D-02  NBF=   150
 NBsUse=   150 1.00D-06 EigRej= -1.00D+00 NBFU=   150
 Initial guess from the checkpoint file:  "HCl2PO4-A.chk"
 B after Tr=     0.000000    0.000000    0.000000
         Rot=    1.000000    0.000000    0.000000    0.000000 Ang=   0.00 deg.
 Keep R1 ints in memory in canonical form, NReq=66200467.
 Requested convergence on RMS density matrix=1.00D-08 within 128 cycles.
 Requested convergence on MAX density matrix=1.00D-06.
 Requested convergence on             energy=1.00D-06.
 No special actions if energy rises.
 SCF Done:  E(RB3LYP) =  -1562.81232485     A.U. after    1 cycles
            NFock=  1  Conv=0.41D-08     -V/T= 2.0027

 **********************************************************************

            Population analysis using the SCF density.

 **********************************************************************

 Orbital symmetries:
       Occupied  (A) (A) (A) (A) (A) (A) (A) (A) (A) (A) (A) (A)
                 (A) (A) (A) (A) (A) (A) (A) (A) (A) (A) (A) (A)
                 (A) (A) (A) (A) (A) (A) (A) (A) (A) (A) (A) (A)
                 (A) (A) (A) (A) (A)
       Virtual   (A) (A) (A) (A) (A) (A) (A) (A) (A) (A) (A) (A)
                 (A) (A) (A) (A) (A) (A) (A) (A) (A) (A) (A) (A)
                 (A) (A) (A) (A) (A) (A) (A) (A) (A) (A) (A) (A)
                 (A) (A) (A) (A) (A) (A) (A) (A) (A) (A) (A) (A)
                 (A) (A) (A) (A) (A) (A) (A) (A) (A) (A) (A) (A)
                 (A) (A) (A) (A) (A) (A) (A) (A) (A) (A) (A) (A)
                 (A) (A) (A) (A) (A) (A) (A) (A) (A) (A) (A) (A)
                 (A) (A) (A) (A) (A) (A) (A) (A) (A) (A) (A) (A)
                 (A) (A) (A) (A) (A) (A) (A) (A) (A) (A) (A) (A)
                 (A)
 The electronic state is 1-A.
 Alpha  occ. eigenvalues -- -101.44985-101.44985 -77.04132 -19.04599 -19.04596
 Alpha  occ. eigenvalues --  -18.94653 -18.94652  -9.35938  -9.35937  -7.12735
 Alpha  occ. eigenvalues --   -7.12735  -7.11307  -7.11306  -7.11288  -7.11287
 Alpha  occ. eigenvalues --   -6.51689  -4.68074  -4.67952  -4.67612  -0.88278
 Alpha  occ. eigenvalues --   -0.84968  -0.80657  -0.77917  -0.66156  -0.65823
 Alpha  occ. eigenvalues --   -0.41206  -0.34304  -0.29124  -0.28268  -0.28056
 Alpha  occ. eigenvalues --   -0.24686  -0.23489  -0.22774  -0.18843  -0.18839
 Alpha  occ. eigenvalues --   -0.16399  -0.16089  -0.15554  -0.14537  -0.13858
 Alpha  occ. eigenvalues --   -0.12870
 Alpha virt. eigenvalues --    0.01246   0.01627   0.16911   0.22383   0.23409
 Alpha virt. eigenvalues --    0.29042   0.32595   0.33694   0.37494   0.38672
 Alpha virt. eigenvalues --    0.41362   0.42814   0.43061   0.45052   0.48757
 Alpha virt. eigenvalues --    0.51366   0.72635   0.75109   0.77239   0.81206
 Alpha virt. eigenvalues --    0.84165   0.86188   0.87105   0.88800   0.90261
 Alpha virt. eigenvalues --    0.90949   0.91376   0.98440   0.98780   0.98863
 Alpha virt. eigenvalues --    0.98991   0.99171   1.01973   1.04144   1.04421
 Alpha virt. eigenvalues --    1.09241   1.10222   1.12320   1.12630   1.13394
 Alpha virt. eigenvalues --    1.13855   1.20564   1.21382   1.32605   1.35347
 Alpha virt. eigenvalues --    1.47599   1.50614   1.55884   1.67838   1.72557
 Alpha virt. eigenvalues --    1.84054   1.84667   2.19862   2.22001   2.22842
 Alpha virt. eigenvalues --    2.24140   2.24781   2.29006   2.91614   2.91796
 Alpha virt. eigenvalues --    2.93083   2.93253   2.95576   2.97239   2.99911
 Alpha virt. eigenvalues --    2.99950   2.99982   3.01314   3.05992   3.07733
 Alpha virt. eigenvalues --    3.11458   3.13244   3.23107   3.24530   3.25955
 Alpha virt. eigenvalues --    3.33095   3.52837   3.56346   4.85439   4.88911
 Alpha virt. eigenvalues --    4.91913   4.93954   4.97232   4.98004   4.98973
 Alpha virt. eigenvalues --    5.04778   5.04805   5.10722   5.15900   5.20409
 Alpha virt. eigenvalues --    6.99477   9.51571   9.54337  13.91409  13.95282
 Alpha virt. eigenvalues --   14.09896  25.44697  25.54347  25.54467  25.59882
 Alpha virt. eigenvalues --   25.87942  25.95726  49.84192  49.86263  49.93700
 Alpha virt. eigenvalues --   49.99586 162.99049 215.44313 215.47250
          Condensed to atoms (all electrons):
               1          2          3          4          5          6
     1  P   12.512298   0.161520   0.479873   0.161510   0.479899  -0.034862
     2  O    0.161520   8.362213  -0.022041  -0.017650  -0.019260   0.002186
     3  O    0.479873  -0.022041   8.198532  -0.019259  -0.018910  -0.000411
     4  O    0.161510  -0.017650  -0.019259   8.362350  -0.022044   0.052049
     5  O    0.479899  -0.019260  -0.018910  -0.022044   8.198515   0.002206
     6  Cl  -0.034862   0.002186  -0.000411   0.052049   0.002206  16.978639
     7  Cl  -0.034872   0.052099   0.002206   0.002183  -0.000419  -0.001612
               7
     1  P   -0.034872
     2  O    0.052099
     3  O    0.002206
     4  O    0.002183
     5  O   -0.000419
     6  Cl  -0.001612
     7  Cl  16.978669
 Mulliken charges:
               1
     1  P    1.274634
     2  O   -0.519067
     3  O   -0.619991
     4  O   -0.519140
     5  O   -0.619987
     6  Cl   0.001805
     7  Cl   0.001746
 Sum of Mulliken charges =  -1.00000
 Mulliken charges with hydrogens summed into heavy atoms:
               1
     1  P    1.274634
     2  O   -0.519067
     3  O   -0.619991
     4  O   -0.519140
     5  O   -0.619987
     6  Cl   0.001805
     7  Cl   0.001746
 Electronic spatial extent (au):  <R**2>=           1373.1134
 Charge=             -1.0000 electrons
 Dipole moment (field-independent basis, Debye):
    X=             -0.0005    Y=             -3.6063    Z=              0.0005  Tot=              3.6063
 Quadrupole moment (field-independent basis, Debye-Ang):
   XX=            -70.4943   YY=            -73.4600   ZZ=            -71.8131
   XY=              0.0001   XZ=              0.5956   YZ=             -0.0008
 Traceless Quadrupole moment (field-independent basis, Debye-Ang):
   XX=              1.4282   YY=             -1.5376   ZZ=              0.1094
   XY=              0.0001   XZ=              0.5956   YZ=             -0.0008
 Octapole moment (field-independent basis, Debye-Ang**2):
  XXX=             -0.0019  YYY=            -18.7833  ZZZ=              0.0034  XYY=              0.0019
  XXY=             -3.8543  XXZ=              0.0038  XZZ=             -0.0046  YZZ=            -11.9490
  YYZ=             -0.0085  XYZ=             12.7572
 Hexadecapole moment (field-independent basis, Debye-Ang**3):
 XXXX=           -945.7462 YYYY=           -629.8143 ZZZZ=           -245.7167 XXXY=              0.0061
 XXXZ=            -17.7166 YYYX=              0.0069 YYYZ=             -0.0169 ZZZX=              2.5419
 ZZZY=              0.0047 XXYY=           -250.1114 XXZZ=           -200.1192 YYZZ=           -158.4351
 XXYZ=              0.0055 YYXZ=              6.2426 ZZXY=             -0.0050
 N-N= 5.384161504707D+02 E-N=-4.803135413795D+03  KE= 1.558615919072D+03
 1\1\GINC-BLADI18\SP\RB3LYP\6-311G(d,p)\Cl2O4P1(1-)\SARARIOP\21-Jun-201
 7\0\\# B3LYP/6-311G** geom=check guess=read output=wfx\\Title Card Req
 uired\\-1,1\P,0,-1.3355169416,-0.4011662423,-0.1009583433\O,0,-2.36882
 57623,-1.5631131586,-1.0433913149\O,0,-0.5468609952,0.2440719081,-1.30
 60831008\O,0,-0.3347300666,-1.5469955408,0.8949422471\O,0,-2.104827833
 1,0.3210346718,1.0725307092\Cl,0,0.8095577846,-2.6889888557,-0.0224951
 762\Cl,0,-3.5445532058,-2.6281470425,-0.0742010211\\Version=AM64L-G09R
 evD.01\State=1-A\HF=-1562.8123248\RMSD=4.104e-09\Dipole=-0.0201571,-1.
 4183113,0.0329187\Quadrupole=1.0444872,-1.1422861,0.0977989,-0.0207078
 ,0.4613634,0.0229717\PG=C01 [X(Cl2O4P1)]\\@

 Writing a WFNX file to "HCl2PO4-A.wfx"


 I KNOW YOU BELIEVE YOU UNDERSTAND WHAT YOU THINK I SAID,
 BUT I AM NOT SURE YOU REALIZE THAT WHAT YOU HEARD IS NOT WHAT I MEANT.
 Job cpu time:       0 days  0 hours  0 minutes 54.6 seconds.
 File lengths (MBytes):  RWF=     10 Int=      0 D2E=      0 Chk=      4 Scr=      1
 Normal termination of Gaussian 09 at Wed Jun 21 09:46:41 2017.
