 Entering Gaussian System, Link 0=g09
 Initial command:
 /usr/local/gaussian/gaussian09.d1/g09/l1.exe "/scratch/sarariop/HClCO3-h2o.com/Gau-28718.inp" -scrdir="/scratch/sarariop/HClCO3-h2o.com/"
 Default is to use a total of  10 processors:
                               10 via shared-memory
                                1 via Linda
 Entering Link 1 = /usr/local/gaussian/gaussian09.d1/g09/l1.exe PID=     28719.
  
 Copyright (c) 1988,1990,1992,1993,1995,1998,2003,2009,2013,
            Gaussian, Inc.  All Rights Reserved.
  
 This is part of the Gaussian(R) 09 program.  It is based on
 the Gaussian(R) 03 system (copyright 2003, Gaussian, Inc.),
 the Gaussian(R) 98 system (copyright 1998, Gaussian, Inc.),
 the Gaussian(R) 94 system (copyright 1995, Gaussian, Inc.),
 the Gaussian 92(TM) system (copyright 1992, Gaussian, Inc.),
 the Gaussian 90(TM) system (copyright 1990, Gaussian, Inc.),
 the Gaussian 88(TM) system (copyright 1988, Gaussian, Inc.),
 the Gaussian 86(TM) system (copyright 1986, Carnegie Mellon
 University), and the Gaussian 82(TM) system (copyright 1983,
 Carnegie Mellon University). Gaussian is a federally registered
 trademark of Gaussian, Inc.
  
 This software contains proprietary and confidential information,
 including trade secrets, belonging to Gaussian, Inc.
  
 This software is provided under written license and may be
 used, copied, transmitted, or stored only in accord with that
 written license.
  
 The following legend is applicable only to US Government
 contracts under FAR:
  
                    RESTRICTED RIGHTS LEGEND
  
 Use, reproduction and disclosure by the US Government is
 subject to restrictions as set forth in subparagraphs (a)
 and (c) of the Commercial Computer Software - Restricted
 Rights clause in FAR 52.227-19.
  
 Gaussian, Inc.
 340 Quinnipiac St., Bldg. 40, Wallingford CT 06492
  
  
 ---------------------------------------------------------------
 Warning -- This program may not be used in any manner that
 competes with the business of Gaussian, Inc. or will provide
 assistance to any competitor of Gaussian, Inc.  The licensee
 of this program is prohibited from giving any competitor of
 Gaussian, Inc. access to this program.  By using this program,
 the user acknowledges that Gaussian, Inc. is engaged in the
 business of creating and licensing software in the field of
 computational chemistry and represents and warrants to the
 licensee that it is not a competitor of Gaussian, Inc. and that
 it will not use this program in any manner prohibited above.
 ---------------------------------------------------------------
  

 Cite this work as:
 Gaussian 09, Revision D.01,
 M. J. Frisch, G. W. Trucks, H. B. Schlegel, G. E. Scuseria, 
 M. A. Robb, J. R. Cheeseman, G. Scalmani, V. Barone, B. Mennucci, 
 G. A. Petersson, H. Nakatsuji, M. Caricato, X. Li, H. P. Hratchian, 
 A. F. Izmaylov, J. Bloino, G. Zheng, J. L. Sonnenberg, M. Hada, 
 M. Ehara, K. Toyota, R. Fukuda, J. Hasegawa, M. Ishida, T. Nakajima, 
 Y. Honda, O. Kitao, H. Nakai, T. Vreven, J. A. Montgomery, Jr., 
 J. E. Peralta, F. Ogliaro, M. Bearpark, J. J. Heyd, E. Brothers, 
 K. N. Kudin, V. N. Staroverov, T. Keith, R. Kobayashi, J. Normand, 
 K. Raghavachari, A. Rendell, J. C. Burant, S. S. Iyengar, J. Tomasi, 
 M. Cossi, N. Rega, J. M. Millam, M. Klene, J. E. Knox, J. B. Cross, 
 V. Bakken, C. Adamo, J. Jaramillo, R. Gomperts, R. E. Stratmann, 
 O. Yazyev, A. J. Austin, R. Cammi, C. Pomelli, J. W. Ochterski, 
 R. L. Martin, K. Morokuma, V. G. Zakrzewski, G. A. Voth, 
 P. Salvador, J. J. Dannenberg, S. Dapprich, A. D. Daniels, 
 O. Farkas, J. B. Foresman, J. V. Ortiz, J. Cioslowski, 
 and D. J. Fox, Gaussian, Inc., Wallingford CT, 2013.
 
 ******************************************
 Gaussian 09:  AM64L-G09RevD.01 24-Apr-2013
                23-Jun-2017 
 ******************************************
 %chk=HClCO3-h2o.chk
 Default route:  MaxDisk=70GB
 -----------------------------------------
 # opt freq b3lyp/6-311g geom=connectivity
 -----------------------------------------
 1/14=-1,18=20,19=15,26=3,38=1,57=2/1,3;
 2/9=110,12=2,17=6,18=5,40=1/2;
 3/5=4,6=6,11=2,16=1,25=1,30=1,71=1,74=-5/1,2,3;
 4//1;
 5/5=2,38=5/2;
 6/7=2,8=2,9=2,10=2,28=1/1;
 7//1,2,3,16;
 1/14=-1,18=20,19=15,26=3/3(2);
 2/9=110/2;
 99//99;
 2/9=110/2;
 3/5=4,6=6,11=2,16=1,25=1,30=1,71=1,74=-5/1,2,3;
 4/5=5,16=3,69=1/1;
 5/5=2,38=5/2;
 7//1,2,3,16;
 1/14=-1,18=20,19=15,26=3/3(-5);
 2/9=110/2;
 6/7=2,8=2,9=2,10=2,19=2,28=1/1;
 99/9=1/99;
 -------------------
 Title Card Required
 -------------------
 Symbolic Z-matrix:
 Charge =  0 Multiplicity = 1
 C                    -0.91358   0.30864   0. 
 O                    -0.99167   1.48876   0.00001 
 O                     0.21529  -0.40937  -0.00002 
 H                     0.00801  -1.35428   0.00086 
 O                    -1.9613   -0.6022   -0.0002 
 Cl                   -3.53613   0.10626   0.00005 
 O                     0.38052  -1.59819  -1.72289 
 H                     1.34052  -1.59819  -1.72289 
 H                     0.06007  -0.69325  -1.72289 
 
 Add virtual bond connecting atoms O7         and H4         Dist= 3.36D+00.
 Add virtual bond connecting atoms H9         and O3         Dist= 3.31D+00.
 Add virtual bond connecting atoms H9         and H4         Dist= 3.49D+00.

 GradGradGradGradGradGradGradGradGradGradGradGradGradGradGradGradGradGrad
 Berny optimization.
 Initialization pass.
                           ----------------------------
                           !    Initial Parameters    !
                           ! (Angstroms and Degrees)  !
 --------------------------                            --------------------------
 ! Name  Definition              Value          Derivative Info.                !
 --------------------------------------------------------------------------------
 ! R1    R(1,2)                  1.1827         estimate D2E/DX2                !
 ! R2    R(1,3)                  1.3379         estimate D2E/DX2                !
 ! R3    R(1,5)                  1.3883         estimate D2E/DX2                !
 ! R4    R(3,4)                  0.9674         estimate D2E/DX2                !
 ! R5    R(3,9)                  1.753          estimate D2E/DX2                !
 ! R6    R(4,7)                  1.7803         estimate D2E/DX2                !
 ! R7    R(4,9)                  1.8469         estimate D2E/DX2                !
 ! R8    R(5,6)                  1.7268         estimate D2E/DX2                !
 ! R9    R(7,8)                  0.96           estimate D2E/DX2                !
 ! R10   R(7,9)                  0.96           estimate D2E/DX2                !
 ! A1    A(2,1,3)              126.2444         estimate D2E/DX2                !
 ! A2    A(2,1,5)              127.2163         estimate D2E/DX2                !
 ! A3    A(3,1,5)              106.5393         estimate D2E/DX2                !
 ! A4    A(1,3,4)              110.0859         estimate D2E/DX2                !
 ! A5    A(1,3,9)               90.6996         estimate D2E/DX2                !
 ! A6    A(3,4,7)               95.0548         estimate D2E/DX2                !
 ! A7    A(1,5,6)              114.7765         estimate D2E/DX2                !
 ! A8    A(4,7,8)              102.0776         estimate D2E/DX2                !
 ! A9    A(8,7,9)              109.5            estimate D2E/DX2                !
 ! A10   A(3,9,7)               97.0706         estimate D2E/DX2                !
 ! D1    D(2,1,3,4)            179.9446         estimate D2E/DX2                !
 ! D2    D(2,1,3,9)           -100.6129         estimate D2E/DX2                !
 ! D3    D(5,1,3,4)             -0.0642         estimate D2E/DX2                !
 ! D4    D(5,1,3,9)             79.3783         estimate D2E/DX2                !
 ! D5    D(2,1,5,6)             -0.0184         estimate D2E/DX2                !
 ! D6    D(3,1,5,6)            179.9905         estimate D2E/DX2                !
 ! D7    D(1,3,4,7)            103.5905         estimate D2E/DX2                !
 ! D8    D(1,3,9,7)           -142.3863         estimate D2E/DX2                !
 ! D9    D(3,4,7,8)             76.1785         estimate D2E/DX2                !
 ! D10   D(3,4,7,9)            -31.5726         estimate D2E/DX2                !
 ! D11   D(8,7,9,3)            -82.0345         estimate D2E/DX2                !
 --------------------------------------------------------------------------------
 Trust Radius=3.00D-01 FncErr=1.00D-07 GrdErr=1.00D-06
 Number of steps in this run=     41 maximum allowed number of steps=    100.
 GradGradGradGradGradGradGradGradGradGradGradGradGradGradGradGradGradGrad

                          Input orientation:                          
 ---------------------------------------------------------------------
 Center     Atomic      Atomic             Coordinates (Angstroms)
 Number     Number       Type             X           Y           Z
 ---------------------------------------------------------------------
      1          6           0       -0.913580    0.308642    0.000000
      2          8           0       -0.991673    1.488763    0.000007
      3          8           0        0.215287   -0.409374   -0.000019
      4          1           0        0.008011   -1.354282    0.000857
      5          8           0       -1.961301   -0.602201   -0.000195
      6         17           0       -3.536132    0.106259    0.000052
      7          8           0        0.380520   -1.598186   -1.722892
      8          1           0        1.340520   -1.598186   -1.722892
      9          1           0        0.060066   -0.693250   -1.722892
 ---------------------------------------------------------------------
                    Distance matrix (angstroms):
                    1          2          3          4          5
     1  C    0.000000
     2  O    1.182702   0.000000
     3  O    1.337867   2.249372   0.000000
     4  H    1.901222   3.013681   0.967375   0.000000
     5  O    1.388292   2.304845   2.185113   2.108036   0.000000
     6  Cl   2.630349   2.895788   3.786690   3.833292   1.726849
     7  O    2.877333   3.792169   2.099730   1.780327   3.073077
     8  H    3.418380   4.235181   2.376492   2.192346   3.855087
     9  H    2.218137   2.972493   1.752989   1.846885   2.657424
                    6          7          8          9
     6  Cl   0.000000
     7  O    4.605848   0.000000
     8  H    5.445678   0.960000   0.000000
     9  H    4.066988   0.960000   1.567952   0.000000
 Stoichiometry    CH3ClO4
 Framework group  C1[X(CH3ClO4)]
 Deg. of freedom    21
 Full point group                 C1      NOp   1
 Largest Abelian subgroup         C1      NOp   1
 Largest concise Abelian subgroup C1      NOp   1
                         Standard orientation:                         
 ---------------------------------------------------------------------
 Center     Atomic      Atomic             Coordinates (Angstroms)
 Number     Number       Type             X           Y           Z
 ---------------------------------------------------------------------
      1          6           0        0.252609    0.703678    0.110585
      2          8           0       -0.177735    1.662474   -0.431907
      3          8           0        1.502488    0.543230    0.559970
      4          1           0        1.600299   -0.329651    0.965343
      5          8           0       -0.427577   -0.469748    0.406854
      6         17           0       -2.082092   -0.491639   -0.087219
      7          8           0        2.479312   -1.043096   -0.408665
      8          1           0        3.356473   -0.667643   -0.302726
      9          1           0        1.911232   -0.409786   -0.853416
 ---------------------------------------------------------------------
 Rotational constants (GHZ):      5.0351361      1.5659126      1.2888114
 Standard basis: 6-311G (5D, 7F)
 There are    95 symmetry adapted cartesian basis functions of A   symmetry.
 There are    95 symmetry adapted basis functions of A   symmetry.
    95 basis functions,   188 primitive gaussians,    95 cartesian basis functions
    29 alpha electrons       29 beta electrons
       nuclear repulsion energy       310.0012759346 Hartrees.
 NAtoms=    9 NActive=    9 NUniq=    9 SFac= 1.00D+00 NAtFMM=   60 NAOKFM=F Big=F
 Integral buffers will be    131072 words long.
 Raffenetti 2 integral format.
 Two-electron integral symmetry is turned on.
 One-electron integrals computed using PRISM.
 NBasis=    95 RedAO= T EigKep=  1.02D-02  NBF=    95
 NBsUse=    95 1.00D-06 EigRej= -1.00D+00 NBFU=    95
 ExpMin= 1.03D-01 ExpMax= 1.06D+05 ExpMxC= 3.62D+03 IAcc=2 IRadAn=         4 AccDes= 0.00D+00
 Harris functional with IExCor=  402 and IRadAn=       4 diagonalized for initial guess.
 HarFok:  IExCor=  402 AccDes= 0.00D+00 IRadAn=         4 IDoV= 1 UseB2=F ITyADJ=14
 ICtDFT=  3500011 ScaDFX=  1.000000  1.000000  1.000000  1.000000
 FoFCou: FMM=F IPFlag=           0 FMFlag=      100000 FMFlg1=           0
         NFxFlg=           0 DoJE=T BraDBF=F KetDBF=T FulRan=T
         wScrn=  0.000000 ICntrl=     500 IOpCl=  0 I1Cent=   200000004 NGrid=           0
         NMat0=    1 NMatS0=      1 NMatT0=    0 NMatD0=    1 NMtDS0=    0 NMtDT0=    0
 Petite list used in FoFCou.
 Keep R1 ints in memory in canonical form, NReq=11361344.
 Requested convergence on RMS density matrix=1.00D-08 within 128 cycles.
 Requested convergence on MAX density matrix=1.00D-06.
 Requested convergence on             energy=1.00D-06.
 No special actions if energy rises.
 Integral accuracy reduced to 1.0D-05 until final iterations.
 Initial convergence to 1.0D-05 achieved.  Increase integral accuracy.
 SCF Done:  E(RB3LYP) =  -800.891474053     A.U. after   17 cycles
            NFock= 17  Conv=0.39D-08     -V/T= 2.0014

 **********************************************************************

            Population analysis using the SCF density.

 **********************************************************************

 Orbital symmetries:
       Occupied  (A) (A) (A) (A) (A) (A) (A) (A) (A) (A) (A) (A)
                 (A) (A) (A) (A) (A) (A) (A) (A) (A) (A) (A) (A)
                 (A) (A) (A) (A) (A)
       Virtual   (A) (A) (A) (A) (A) (A) (A) (A) (A) (A) (A) (A)
                 (A) (A) (A) (A) (A) (A) (A) (A) (A) (A) (A) (A)
                 (A) (A) (A) (A) (A) (A) (A) (A) (A) (A) (A) (A)
                 (A) (A) (A) (A) (A) (A) (A) (A) (A) (A) (A) (A)
                 (A) (A) (A) (A) (A) (A) (A) (A) (A) (A) (A) (A)
                 (A) (A) (A) (A) (A) (A)
 The electronic state is 1-A.
 Alpha  occ. eigenvalues -- -101.63058 -19.24929 -19.20711 -19.16052 -19.12996
 Alpha  occ. eigenvalues --  -10.40209  -9.54228  -7.31287  -7.29374  -7.29371
 Alpha  occ. eigenvalues --   -1.21532  -1.12044  -1.10565  -1.04469  -0.85963
 Alpha  occ. eigenvalues --   -0.68133  -0.61402  -0.59023  -0.53057  -0.52055
 Alpha  occ. eigenvalues --   -0.46942  -0.44282  -0.43158  -0.38955  -0.37649
 Alpha  occ. eigenvalues --   -0.35498  -0.34123  -0.33012  -0.30146
 Alpha virt. eigenvalues --   -0.12724  -0.01724   0.01180   0.07547   0.08326
 Alpha virt. eigenvalues --    0.14980   0.24269   0.25254   0.26282   0.29089
 Alpha virt. eigenvalues --    0.29219   0.33830   0.35578   0.37273   0.40578
 Alpha virt. eigenvalues --    0.42284   0.54650   0.58229   0.68200   0.71102
 Alpha virt. eigenvalues --    0.73957   0.76012   0.80568   0.84373   0.84688
 Alpha virt. eigenvalues --    0.91076   0.92535   0.94982   0.96078   1.01570
 Alpha virt. eigenvalues --    1.06931   1.23847   1.37963   1.51308   1.58545
 Alpha virt. eigenvalues --    2.04973   2.07222   2.11303   2.14517   2.20577
 Alpha virt. eigenvalues --    2.27237   2.49696   2.67585   2.82626   4.67824
 Alpha virt. eigenvalues --    4.68558   4.74676   4.78380   4.82802   4.83847
 Alpha virt. eigenvalues --    4.84521   4.88446   4.90334   4.95724   4.99602
 Alpha virt. eigenvalues --    5.03720   9.34801  23.20428  25.31499  25.36807
 Alpha virt. eigenvalues --   25.66952  49.68676  49.72102  49.79197  49.84309
 Alpha virt. eigenvalues --  215.27849
          Condensed to atoms (all electrons):
               1          2          3          4          5          6
     1  C    4.648710   0.569008   0.131571  -0.016988   0.081266  -0.039263
     2  O    0.569008   7.899065  -0.083316   0.000937  -0.097213   0.001175
     3  O    0.131571  -0.083316   8.496865   0.223832  -0.123746   0.005881
     4  H   -0.016988   0.000937   0.223832   0.328430   0.009365   0.000534
     5  O    0.081266  -0.097213  -0.123746   0.009365   8.628501   0.028419
     6  Cl  -0.039263   0.001175   0.005881   0.000534   0.028419  16.731606
     7  O    0.010929  -0.000255  -0.128992   0.049244   0.000461   0.000068
     8  H    0.000301  -0.000054   0.008824  -0.006456   0.000262  -0.000028
     9  H   -0.005266  -0.000046   0.022118  -0.022233   0.000565  -0.000319
               7          8          9
     1  C    0.010929   0.000301  -0.005266
     2  O   -0.000255  -0.000054  -0.000046
     3  O   -0.128992   0.008824   0.022118
     4  H    0.049244  -0.006456  -0.022233
     5  O    0.000461   0.000262   0.000565
     6  Cl   0.000068  -0.000028  -0.000319
     7  O    8.329587   0.248611   0.238516
     8  H    0.248611   0.381321  -0.031710
     9  H    0.238516  -0.031710   0.403911
 Mulliken charges:
               1
     1  C    0.619732
     2  O   -0.289301
     3  O   -0.553035
     4  H    0.433335
     5  O   -0.527880
     6  Cl   0.271927
     7  O   -0.748170
     8  H    0.398929
     9  H    0.394464
 Sum of Mulliken charges =   0.00000
 Mulliken charges with hydrogens summed into heavy atoms:
               1
     1  C    0.619732
     2  O   -0.289301
     3  O   -0.119701
     5  O   -0.527880
     6  Cl   0.271927
     7  O    0.045223
 Electronic spatial extent (au):  <R**2>=            848.2059
 Charge=              0.0000 electrons
 Dipole moment (field-independent basis, Debye):
    X=              1.1851    Y=             -0.6175    Z=              0.5678  Tot=              1.4520
 Quadrupole moment (field-independent basis, Debye-Ang):
   XX=            -32.0814   YY=            -51.0915   ZZ=            -40.0408
   XY=              2.5063   XZ=              0.6105   YZ=              0.0363
 Traceless Quadrupole moment (field-independent basis, Debye-Ang):
   XX=              8.9899   YY=            -10.0203   ZZ=              1.0305
   XY=              2.5063   XZ=              0.6105   YZ=              0.0363
 Octapole moment (field-independent basis, Debye-Ang**2):
  XXX=             26.7786  YYY=             -3.1104  ZZZ=              1.3992  XYY=             -6.3667
  XXY=              0.3488  XXZ=             -2.3265  XZZ=              5.4166  YZZ=             -0.7492
  YYZ=              4.7626  XYZ=             -5.9920
 Hexadecapole moment (field-independent basis, Debye-Ang**3):
 XXXX=           -515.7181 YYYY=           -245.3993 ZZZZ=            -69.6616 XXXY=              1.8459
 XXXZ=              6.9400 YYYX=             10.8198 YYYZ=              1.0689 ZZZX=              2.3236
 ZZZY=             -2.0973 XXYY=           -177.5775 XXZZ=           -127.2299 YYZZ=            -51.2429
 XXYZ=             -9.6317 YYXZ=              3.7322 ZZXY=             -1.5239
 N-N= 3.100012759346D+02 E-N=-2.517719871885D+03  KE= 7.997829789218D+02
 Calling FoFJK, ICntrl=      2127 FMM=F ISym2X=0 I1Cent= 0 IOpClX= 0 NMat=1 NMatS=1 NMatT=0.
 ***** Axes restored to original set *****
 -------------------------------------------------------------------
 Center     Atomic                   Forces (Hartrees/Bohr)
 Number     Number              X              Y              Z
 -------------------------------------------------------------------
      1        6           0.005487521   -0.015724146    0.017383527
      2        8          -0.004307520    0.051283928   -0.003532237
      3        8          -0.001645117    0.036992185    0.064633850
      4        1           0.007197111   -0.015478796   -0.002481636
      5        8           0.025094315   -0.027068908   -0.000016899
      6       17          -0.046394186    0.016424998   -0.000078568
      7        8          -0.003033357   -0.046677551   -0.050937775
      8        1           0.009663749    0.001214655   -0.004738851
      9        1           0.007937484   -0.000966364   -0.020231412
 -------------------------------------------------------------------
 Cartesian Forces:  Max     0.064633850 RMS     0.025994808

 GradGradGradGradGradGradGradGradGradGradGradGradGradGradGradGradGradGrad
 Berny optimization.
 FormGI is forming the generalized inverse of G from B-inverse, IUseBI=4.
 Internal  Forces:  Max     0.051457297 RMS     0.023643171
 Search for a local minimum.
 Step number   1 out of a maximum of   41
 All quantities printed in internal units (Hartrees-Bohrs-Radians)
 Mixed Optimization -- RFO/linear search
 Second derivative matrix not updated -- first step.
 ITU=  0
     Eigenvalues ---    0.00570   0.01847   0.02288   0.02514   0.05450
     Eigenvalues ---    0.06608   0.07125   0.08705   0.10254   0.12683
     Eigenvalues ---    0.14671   0.25000   0.25000   0.25000   0.32843
     Eigenvalues ---    0.47617   0.50126   0.53647   0.55473   0.57686
     Eigenvalues ---    1.14018
 RFO step:  Lambda=-6.36970289D-02 EMin= 5.69773538D-03
 Linear search not attempted -- first point.
 Maximum step size (   0.300) exceeded in Quadratic search.
    -- Step size scaled by   0.548
 Iteration  1 RMS(Cart)=  0.08934066 RMS(Int)=  0.00232814
 Iteration  2 RMS(Cart)=  0.00329202 RMS(Int)=  0.00086577
 Iteration  3 RMS(Cart)=  0.00000851 RMS(Int)=  0.00086576
 Iteration  4 RMS(Cart)=  0.00000001 RMS(Int)=  0.00086576
 Variable       Old X    -DE/DX   Delta X   Delta X   Delta X     New X
                                 (Linear)    (Quad)   (Total)
    R1        2.23498   0.05146   0.00000   0.02341   0.02341   2.25840
    R2        2.52820   0.03035   0.00000   0.02596   0.02596   2.55416
    R3        2.62349   0.02305   0.00000   0.02338   0.02338   2.64687
    R4        1.82807   0.02949   0.00000   0.02852   0.02917   1.85725
    R5        3.31267   0.04863   0.00000   0.18596   0.18716   3.49983
    R6        3.36433   0.03968   0.00000   0.14647   0.14726   3.51159
    R7        3.49011  -0.00622   0.00000   0.02133   0.01898   3.50908
    R8        3.26327   0.04905   0.00000   0.06852   0.06852   3.33179
    R9        1.81414   0.00966   0.00000   0.00856   0.00856   1.82269
   R10        1.81414   0.02623   0.00000   0.02082   0.02085   1.83499
    A1        2.20338   0.00054   0.00000   0.00094   0.00090   2.20428
    A2        2.22034  -0.00148   0.00000  -0.00259  -0.00263   2.21772
    A3        1.85946   0.00095   0.00000   0.00166   0.00162   1.86108
    A4        1.92136   0.01995   0.00000   0.04853   0.04984   1.97120
    A5        1.58301   0.03074   0.00000   0.07989   0.07968   1.66269
    A6        1.65902   0.03779   0.00000   0.09856   0.09786   1.75688
    A7        2.00323   0.01319   0.00000   0.02303   0.02303   2.02626
    A8        1.78159   0.00536   0.00000   0.01373   0.01377   1.79536
    A9        1.91114  -0.00574   0.00000  -0.00910  -0.00847   1.90267
   A10        1.69420   0.03417   0.00000   0.07998   0.07867   1.77287
    D1        3.14063   0.01577   0.00000   0.04944   0.04819  -3.09437
    D2       -1.75603  -0.01044   0.00000  -0.01623  -0.01496  -1.77099
    D3       -0.00112   0.01347   0.00000   0.03494   0.03367   0.03255
    D4        1.38541  -0.01273   0.00000  -0.03073  -0.02948   1.35593
    D5       -0.00032  -0.00103   0.00000  -0.00645  -0.00644  -0.00676
    D6        3.14143   0.00129   0.00000   0.00823   0.00822  -3.13354
    D7        1.80799   0.00972   0.00000   0.01820   0.01711   1.82511
    D8       -2.48511  -0.00101   0.00000  -0.00495  -0.00344  -2.48855
    D9        1.32957   0.00277   0.00000   0.00609   0.00545   1.33502
   D10       -0.55105   0.01403   0.00000   0.02787   0.02711  -0.52394
   D11       -1.43177  -0.00347   0.00000  -0.02048  -0.02032  -1.45209
         Item               Value     Threshold  Converged?
 Maximum Force            0.051457     0.000450     NO 
 RMS     Force            0.023643     0.000300     NO 
 Maximum Displacement     0.178302     0.001800     NO 
 RMS     Displacement     0.091912     0.001200     NO 
 Predicted change in Energy=-2.839628D-02
 GradGradGradGradGradGradGradGradGradGradGradGradGradGradGradGradGradGrad

                          Input orientation:                          
 ---------------------------------------------------------------------
 Center     Atomic      Atomic             Coordinates (Angstroms)
 Number     Number       Type             X           Y           Z
 ---------------------------------------------------------------------
      1          6           0       -0.948600    0.351458    0.049250
      2          8           0       -1.026699    1.543946    0.060049
      3          8           0        0.190681   -0.375636    0.035038
      4          1           0        0.026897   -1.343420   -0.014866
      5          8           0       -2.008631   -0.563853    0.029098
      6         17           0       -3.630486    0.127623    0.029368
      7          8           0        0.455082   -1.673338   -1.792763
      8          1           0        1.419475   -1.657936   -1.787849
      9          1           0        0.123997   -0.760656   -1.775301
 ---------------------------------------------------------------------
                    Distance matrix (angstroms):
                    1          2          3          4          5
     1  C    0.000000
     2  O    1.195092   0.000000
     3  O    1.351602   2.273199   0.000000
     4  H    1.956608   3.074501   0.982813   0.000000
     5  O    1.400666   2.325502   2.207358   2.180145   0.000000
     6  Cl   2.691284   2.964223   3.854168   3.942382   1.763109
     7  O    3.076221   3.997438   2.257166   1.858254   3.258837
     8  H    3.608376   4.432894   2.545024   2.276327   4.031157
     9  H    2.390868   3.162879   1.852031   1.856927   2.800481
                    6          7          8          9
     6  Cl   0.000000
     7  O    4.822394   0.000000
     8  H    5.656200   0.964528   0.000000
     9  H    4.259344   0.971036   1.575922   0.000000
 Stoichiometry    CH3ClO4
 Framework group  C1[X(CH3ClO4)]
 Deg. of freedom    21
 Full point group                 C1      NOp   1
 Largest Abelian subgroup         C1      NOp   1
 Largest concise Abelian subgroup C1      NOp   1
                         Standard orientation:                         
 ---------------------------------------------------------------------
 Center     Atomic      Atomic             Coordinates (Angstroms)
 Number     Number       Type             X           Y           Z
 ---------------------------------------------------------------------
      1          6           0        0.220564    0.743905    0.107915
      2          8           0       -0.229639    1.695477   -0.457835
      3          8           0        1.486202    0.608047    0.562370
      4          1           0        1.657381   -0.273647    0.961413
      5          8           0       -0.445166   -0.450170    0.412628
      6         17           0       -2.132813   -0.546860   -0.088421
      7          8           0        2.651141   -1.075057   -0.388880
      8          1           0        3.518579   -0.665243   -0.289290
      9          1           0        2.058186   -0.454296   -0.842720
 ---------------------------------------------------------------------
 Rotational constants (GHZ):      4.7216686      1.4607279      1.1986354
 Standard basis: 6-311G (5D, 7F)
 There are    95 symmetry adapted cartesian basis functions of A   symmetry.
 There are    95 symmetry adapted basis functions of A   symmetry.
    95 basis functions,   188 primitive gaussians,    95 cartesian basis functions
    29 alpha electrons       29 beta electrons
       nuclear repulsion energy       301.9887727860 Hartrees.
 NAtoms=    9 NActive=    9 NUniq=    9 SFac= 1.00D+00 NAtFMM=   60 NAOKFM=F Big=F
 Integral buffers will be    131072 words long.
 Raffenetti 2 integral format.
 Two-electron integral symmetry is turned on.
 One-electron integrals computed using PRISM.
 NBasis=    95 RedAO= T EigKep=  1.09D-02  NBF=    95
 NBsUse=    95 1.00D-06 EigRej= -1.00D+00 NBFU=    95
 Initial guess from the checkpoint file:  "HClCO3-h2o.chk"
 B after Tr=     0.000000    0.000000    0.000000
         Rot=    0.999896    0.010189    0.003180   -0.009692 Ang=   1.65 deg.
 ExpMin= 1.03D-01 ExpMax= 1.06D+05 ExpMxC= 3.62D+03 IAcc=2 IRadAn=         4 AccDes= 0.00D+00
 Harris functional with IExCor=  402 and IRadAn=       4 diagonalized for initial guess.
 HarFok:  IExCor=  402 AccDes= 0.00D+00 IRadAn=         4 IDoV= 1 UseB2=F ITyADJ=14
 ICtDFT=  3500011 ScaDFX=  1.000000  1.000000  1.000000  1.000000
 FoFCou: FMM=F IPFlag=           0 FMFlag=      100000 FMFlg1=           0
         NFxFlg=           0 DoJE=T BraDBF=F KetDBF=T FulRan=T
         wScrn=  0.000000 ICntrl=     500 IOpCl=  0 I1Cent=   200000004 NGrid=           0
         NMat0=    1 NMatS0=      1 NMatT0=    0 NMatD0=    1 NMtDS0=    0 NMtDT0=    0
 Petite list used in FoFCou.
 Keep R1 ints in memory in canonical form, NReq=11361344.
 Requested convergence on RMS density matrix=1.00D-08 within 128 cycles.
 Requested convergence on MAX density matrix=1.00D-06.
 Requested convergence on             energy=1.00D-06.
 No special actions if energy rises.
 Integral accuracy reduced to 1.0D-05 until final iterations.
 Initial convergence to 1.0D-05 achieved.  Increase integral accuracy.
 SCF Done:  E(RB3LYP) =  -800.917473713     A.U. after   14 cycles
            NFock= 14  Conv=0.45D-08     -V/T= 2.0019
 Calling FoFJK, ICntrl=      2127 FMM=F ISym2X=0 I1Cent= 0 IOpClX= 0 NMat=1 NMatS=1 NMatT=0.
 ***** Axes restored to original set *****
 -------------------------------------------------------------------
 Center     Atomic                   Forces (Hartrees/Bohr)
 Number     Number              X              Y              Z
 -------------------------------------------------------------------
      1        6           0.000198756   -0.006343400    0.009854511
      2        8          -0.001003620    0.024904130   -0.000937399
      3        8          -0.006726696    0.016148718    0.033456571
      4        1           0.004583419   -0.002333246   -0.003285427
      5        8           0.018927356   -0.018300971    0.000171115
      6       17          -0.026321433    0.011004647   -0.000028629
      7        8          -0.004217050   -0.020485273   -0.021550981
      8        1           0.006237647    0.000663687   -0.003555912
      9        1           0.008321621   -0.005258292   -0.014123848
 -------------------------------------------------------------------
 Cartesian Forces:  Max     0.033456571 RMS     0.013580323

 GradGradGradGradGradGradGradGradGradGradGradGradGradGradGradGradGradGrad
 Berny optimization.
 Using GEDIIS/GDIIS optimizer.
 FormGI is forming the generalized inverse of G from B-inverse, IUseBI=4.
 Internal  Forces:  Max     0.028710253 RMS     0.012114935
 Search for a local minimum.
 Step number   2 out of a maximum of   41
 All quantities printed in internal units (Hartrees-Bohrs-Radians)
 Mixed Optimization -- RFO/linear search
 Update second derivatives using D2CorX and points    1    2
 DE= -2.60D-02 DEPred=-2.84D-02 R= 9.16D-01
 TightC=F SS=  1.41D+00  RLast= 3.11D-01 DXNew= 5.0454D-01 9.3163D-01
 Trust test= 9.16D-01 RLast= 3.11D-01 DXMaxT set to 5.05D-01
 ITU=  1  0
 Use linear search instead of GDIIS.
 Linear search step of   0.601 exceeds DXMaxT=   0.505 but not scaled.
 Quartic linear search produced a step of  2.00000.
 Iteration  1 RMS(Cart)=  0.15548003 RMS(Int)=  0.03041743
 Iteration  2 RMS(Cart)=  0.03686977 RMS(Int)=  0.00463178
 Iteration  3 RMS(Cart)=  0.00064245 RMS(Int)=  0.00460586
 Iteration  4 RMS(Cart)=  0.00000344 RMS(Int)=  0.00460586
 Iteration  5 RMS(Cart)=  0.00000003 RMS(Int)=  0.00460586
 Variable       Old X    -DE/DX   Delta X   Delta X   Delta X     New X
                                 (Linear)    (Quad)   (Total)
    R1        2.25840   0.02491   0.04683   0.00000   0.04683   2.30522
    R2        2.55416   0.01307   0.05191   0.00000   0.05191   2.60607
    R3        2.64687   0.01036   0.04677   0.00000   0.04677   2.69364
    R4        1.85725   0.01145   0.05835   0.00000   0.06042   1.91767
    R5        3.49983   0.02871   0.37432   0.00000   0.37986   3.87969
    R6        3.51159   0.01903   0.29452   0.00000   0.29897   3.81057
    R7        3.50908  -0.00417   0.03795   0.00000   0.02628   3.53536
    R8        3.33179   0.02853   0.13704   0.00000   0.13704   3.46883
    R9        1.82269   0.00623   0.01711   0.00000   0.01711   1.83981
   R10        1.83499   0.00909   0.04171   0.00000   0.04108   1.87608
    A1        2.20428  -0.00012   0.00180   0.00000   0.00160   2.20588
    A2        2.21772   0.00130  -0.00525   0.00000  -0.00546   2.21226
    A3        1.86108  -0.00119   0.00324   0.00000   0.00304   1.86412
    A4        1.97120   0.01076   0.09967   0.00000   0.10555   2.07674
    A5        1.66269   0.01884   0.15936   0.00000   0.15774   1.82043
    A6        1.75688   0.02011   0.19572   0.00000   0.19155   1.94843
    A7        2.02626   0.00067   0.04607   0.00000   0.04607   2.07233
    A8        1.79536   0.00292   0.02754   0.00000   0.02725   1.82261
    A9        1.90267  -0.00273  -0.01694   0.00000  -0.01294   1.88973
   A10        1.77287   0.01539   0.15733   0.00000   0.14964   1.92250
    D1       -3.09437   0.00683   0.09638   0.00000   0.08982  -3.00455
    D2       -1.77099  -0.00491  -0.02993   0.00000  -0.02329  -1.79428
    D3        0.03255   0.00634   0.06735   0.00000   0.06071   0.09327
    D4        1.35593  -0.00539  -0.05896   0.00000  -0.05239   1.30354
    D5       -0.00676  -0.00021  -0.01288   0.00000  -0.01280  -0.01956
    D6       -3.13354   0.00030   0.01644   0.00000   0.01636  -3.11717
    D7        1.82511   0.00682   0.03423   0.00000   0.02741   1.85252
    D8       -2.48855   0.00149  -0.00687   0.00000   0.00187  -2.48667
    D9        1.33502   0.00123   0.01090   0.00000   0.00689   1.34190
   D10       -0.52394   0.00676   0.05421   0.00000   0.04954  -0.47440
   D11       -1.45209  -0.00375  -0.04063   0.00000  -0.03957  -1.49166
         Item               Value     Threshold  Converged?
 Maximum Force            0.028710     0.000450     NO 
 RMS     Force            0.012115     0.000300     NO 
 Maximum Displacement     0.369366     0.001800     NO 
 RMS     Displacement     0.189865     0.001200     NO 
 Predicted change in Energy=-3.521562D-03
 GradGradGradGradGradGradGradGradGradGradGradGradGradGradGradGradGradGrad

                          Input orientation:                          
 ---------------------------------------------------------------------
 Center     Atomic      Atomic             Coordinates (Angstroms)
 Number     Number       Type             X           Y           Z
 ---------------------------------------------------------------------
      1          6           0       -1.024546    0.436164    0.145417
      2          8           0       -1.098137    1.653205    0.183909
      3          8           0        0.132515   -0.312144    0.089911
      4          1           0        0.063887   -1.313534   -0.059426
      5          8           0       -2.112764   -0.482771    0.089349
      6         17           0       -3.825946    0.176297    0.102195
      7          8           0        0.615575   -1.825834   -1.930072
      8          1           0        1.588148   -1.783660   -1.916279
      9          1           0        0.262984   -0.899537   -1.872980
 ---------------------------------------------------------------------
                    Distance matrix (angstroms):
                    1          2          3          4          5
     1  C    0.000000
     2  O    1.219871   0.000000
     3  O    1.379071   2.320762   0.000000
     4  H    2.070770   3.195473   1.014787   0.000000
     5  O    1.425413   2.366601   2.251753   2.334547   0.000000
     6  Cl   2.813759   3.103043   3.988501   4.168515   1.835628
     7  O    3.480559   4.416949   2.570007   2.016465   3.650440
     8  H    4.000548   4.841379   2.882538   2.447916   4.405860
     9  H    2.741489   3.549639   2.053046   1.870832   3.109439
                    6          7          8          9
     6  Cl   0.000000
     7  O    5.278802   0.000000
     8  H    6.101482   0.973585   0.000000
     9  H    4.666700   0.992777   1.593614   0.000000
 Stoichiometry    CH3ClO4
 Framework group  C1[X(CH3ClO4)]
 Deg. of freedom    21
 Full point group                 C1      NOp   1
 Largest Abelian subgroup         C1      NOp   1
 Largest concise Abelian subgroup C1      NOp   1
                         Standard orientation:                         
 ---------------------------------------------------------------------
 Center     Atomic      Atomic             Coordinates (Angstroms)
 Number     Number       Type             X           Y           Z
 ---------------------------------------------------------------------
      1          6           0        0.152773    0.815627    0.105413
      2          8           0       -0.334679    1.763963   -0.487152
      3          8           0        1.451444    0.713610    0.558055
      4          1           0        1.773851   -0.173148    0.931563
      5          8           0       -0.488440   -0.420226    0.410888
      6         17           0       -2.238658   -0.654007   -0.090723
      7          8           0        3.013671   -1.113438   -0.350946
      8          1           0        3.860477   -0.641820   -0.259500
      9          1           0        2.370245   -0.511940   -0.808996
 ---------------------------------------------------------------------
 Rotational constants (GHZ):      4.2265582      1.2677855      1.0371492
 Standard basis: 6-311G (5D, 7F)
 There are    95 symmetry adapted cartesian basis functions of A   symmetry.
 There are    95 symmetry adapted basis functions of A   symmetry.
    95 basis functions,   188 primitive gaussians,    95 cartesian basis functions
    29 alpha electrons       29 beta electrons
       nuclear repulsion energy       287.5032092970 Hartrees.
 NAtoms=    9 NActive=    9 NUniq=    9 SFac= 1.00D+00 NAtFMM=   60 NAOKFM=F Big=F
 Integral buffers will be    131072 words long.
 Raffenetti 2 integral format.
 Two-electron integral symmetry is turned on.
 One-electron integrals computed using PRISM.
 NBasis=    95 RedAO= T EigKep=  1.19D-02  NBF=    95
 NBsUse=    95 1.00D-06 EigRej= -1.00D+00 NBFU=    95
 Initial guess from the checkpoint file:  "HClCO3-h2o.chk"
 B after Tr=     0.000000    0.000000    0.000000
         Rot=    0.999727    0.013421    0.005627   -0.018261 Ang=   2.68 deg.
 ExpMin= 1.03D-01 ExpMax= 1.06D+05 ExpMxC= 3.62D+03 IAcc=2 IRadAn=         4 AccDes= 0.00D+00
 Harris functional with IExCor=  402 and IRadAn=       4 diagonalized for initial guess.
 HarFok:  IExCor=  402 AccDes= 0.00D+00 IRadAn=         4 IDoV= 1 UseB2=F ITyADJ=14
 ICtDFT=  3500011 ScaDFX=  1.000000  1.000000  1.000000  1.000000
 FoFCou: FMM=F IPFlag=           0 FMFlag=      100000 FMFlg1=           0
         NFxFlg=           0 DoJE=T BraDBF=F KetDBF=T FulRan=T
         wScrn=  0.000000 ICntrl=     500 IOpCl=  0 I1Cent=   200000004 NGrid=           0
         NMat0=    1 NMatS0=      1 NMatT0=    0 NMatD0=    1 NMtDS0=    0 NMtDT0=    0
 Petite list used in FoFCou.
 Keep R1 ints in memory in canonical form, NReq=11361344.
 Requested convergence on RMS density matrix=1.00D-08 within 128 cycles.
 Requested convergence on MAX density matrix=1.00D-06.
 Requested convergence on             energy=1.00D-06.
 No special actions if energy rises.
 Integral accuracy reduced to 1.0D-05 until final iterations.
 Initial convergence to 1.0D-05 achieved.  Increase integral accuracy.
 SCF Done:  E(RB3LYP) =  -800.932589690     A.U. after   15 cycles
            NFock= 15  Conv=0.56D-08     -V/T= 2.0026
 Calling FoFJK, ICntrl=      2127 FMM=F ISym2X=0 I1Cent= 0 IOpClX= 0 NMat=1 NMatS=1 NMatT=0.
 ***** Axes restored to original set *****
 -------------------------------------------------------------------
 Center     Atomic                   Forces (Hartrees/Bohr)
 Number     Number              X              Y              Z
 -------------------------------------------------------------------
      1        6          -0.008060073    0.009570066   -0.001039398
      2        8           0.004871797   -0.020473732    0.001470721
      3        8          -0.011925389   -0.005942299    0.004249881
      4        1          -0.004206482    0.021735474    0.001741391
      5        8           0.010860365   -0.005042892    0.000934233
      6       17           0.004724944    0.003910828    0.000303932
      7        8          -0.005969514    0.012600375    0.005223706
      8        1          -0.000894154   -0.000310720   -0.002321706
      9        1           0.010598506   -0.016047100   -0.010562761
 -------------------------------------------------------------------
 Cartesian Forces:  Max     0.021735474 RMS     0.008991350

 GradGradGradGradGradGradGradGradGradGradGradGradGradGradGradGradGradGrad
 Berny optimization.
 Using GEDIIS/GDIIS optimizer.
 FormGI is forming the generalized inverse of G from B-inverse, IUseBI=4.
 Internal  Forces:  Max     0.020672831 RMS     0.008278093
 Search for a local minimum.
 Step number   3 out of a maximum of   41
 All quantities printed in internal units (Hartrees-Bohrs-Radians)
 Mixed Optimization -- RFO/linear search
 Update second derivatives using D2CorX and points    2    3
 ITU=  0  1  0
 Use linear search instead of GDIIS.
     Eigenvalues ---    0.00471   0.01847   0.02304   0.02518   0.04911
     Eigenvalues ---    0.05529   0.05893   0.07830   0.10694   0.11899
     Eigenvalues ---    0.13637   0.24978   0.24997   0.25712   0.31804
     Eigenvalues ---    0.47819   0.49624   0.55424   0.55539   0.58662
     Eigenvalues ---    1.14018
 RFO step:  Lambda=-6.49313325D-03 EMin= 4.71080227D-03
 Quartic linear search produced a step of -0.06258.
 Iteration  1 RMS(Cart)=  0.08598267 RMS(Int)=  0.00656768
 Iteration  2 RMS(Cart)=  0.00548892 RMS(Int)=  0.00139270
 Iteration  3 RMS(Cart)=  0.00004203 RMS(Int)=  0.00139225
 Iteration  4 RMS(Cart)=  0.00000005 RMS(Int)=  0.00139225
 Variable       Old X    -DE/DX   Delta X   Delta X   Delta X     New X
                                 (Linear)    (Quad)   (Total)
    R1        2.30522  -0.02067  -0.00293  -0.01167  -0.01460   2.29062
    R2        2.60607  -0.01686  -0.00325  -0.02145  -0.02470   2.58137
    R3        2.69364  -0.01118  -0.00293  -0.01660  -0.01953   2.67411
    R4        1.91767  -0.01999  -0.00378  -0.02687  -0.03107   1.88660
    R5        3.87969   0.00748  -0.02377   0.11498   0.08962   3.96932
    R6        3.81057   0.00095  -0.01871   0.04323   0.02528   3.83584
    R7        3.53536   0.00053  -0.00164   0.05248   0.05188   3.58724
    R8        3.46883  -0.00301  -0.00858   0.00730  -0.00127   3.46756
    R9        1.83981  -0.00093  -0.00107   0.00051  -0.00056   1.83925
   R10        1.87608  -0.01611  -0.00257  -0.02339  -0.02573   1.85035
    A1        2.20588  -0.00181  -0.00010  -0.00554  -0.00651   2.19936
    A2        2.21226   0.00643   0.00034   0.02418   0.02363   2.23589
    A3        1.86412  -0.00452  -0.00019  -0.01558  -0.01665   1.84747
    A4        2.07674  -0.00483  -0.00661  -0.05725  -0.06323   2.01352
    A5        1.82043   0.00414  -0.00987   0.07265   0.06447   1.88489
    A6        1.94843   0.00433  -0.01199   0.05258   0.03827   1.98670
    A7        2.07233  -0.01845  -0.00288  -0.06349  -0.06638   2.00595
    A8        1.82261   0.00067  -0.00171   0.01922   0.01833   1.84094
    A9        1.88973   0.00112   0.00081  -0.00643  -0.00651   1.88322
   A10        1.92250  -0.00218  -0.00936   0.00262  -0.00863   1.91387
    D1       -3.00455  -0.00100  -0.00562  -0.04364  -0.04598  -3.05054
    D2       -1.79428  -0.00185   0.00146  -0.03842  -0.03965  -1.83394
    D3        0.09327   0.00143  -0.00380   0.02949   0.02838   0.12165
    D4        1.30354   0.00059   0.00328   0.03471   0.03471   1.33825
    D5       -0.01956   0.00097   0.00080   0.03186   0.03321   0.01365
    D6       -3.11717  -0.00121  -0.00102  -0.04064  -0.04221   3.12380
    D7        1.85252   0.00461  -0.00172   0.05840   0.05741   1.90993
    D8       -2.48667   0.00679  -0.00012   0.18415   0.18341  -2.30326
    D9        1.34190  -0.00062  -0.00043   0.06816   0.06836   1.41027
   D10       -0.47440  -0.00173  -0.00310   0.08081   0.07894  -0.39546
   D11       -1.49166  -0.00319   0.00248  -0.07712  -0.07411  -1.56576
         Item               Value     Threshold  Converged?
 Maximum Force            0.020673     0.000450     NO 
 RMS     Force            0.008278     0.000300     NO 
 Maximum Displacement     0.251018     0.001800     NO 
 RMS     Displacement     0.087013     0.001200     NO 
 Predicted change in Energy=-3.739397D-03
 GradGradGradGradGradGradGradGradGradGradGradGradGradGradGradGradGradGrad

                          Input orientation:                          
 ---------------------------------------------------------------------
 Center     Atomic      Atomic             Coordinates (Angstroms)
 Number     Number       Type             X           Y           Z
 ---------------------------------------------------------------------
      1          6           0       -1.058772    0.444552    0.128503
      2          8           0       -1.153822    1.648039    0.237520
      3          8           0        0.105717   -0.267055    0.068954
      4          1           0        0.001063   -1.244931   -0.102799
      5          8           0       -2.099731   -0.512719    0.078650
      6         17           0       -3.795217    0.182613    0.172977
      7          8           0        0.619486   -1.824418   -1.947251
      8          1           0        1.587176   -1.906406   -1.882883
      9          1           0        0.395817   -0.871489   -1.921646
 ---------------------------------------------------------------------
                    Distance matrix (angstroms):
                    1          2          3          4          5
     1  C    0.000000
     2  O    1.212146   0.000000
     3  O    1.366003   2.298355   0.000000
     4  H    2.007761   3.133504   0.998344   0.000000
     5  O    1.415080   2.364077   2.219109   2.232128   0.000000
     6  Cl   2.749313   3.021358   3.928143   4.065179   1.834955
     7  O    3.503360   4.469430   2.598927   2.029841   3.635790
     8  H    4.071083   4.964198   2.948196   2.474268   4.402642
     9  H    2.837412   3.662158   2.100473   1.898286   3.218332
                    6          7          8          9
     6  Cl   0.000000
     7  O    5.292745   0.000000
     8  H    6.128680   0.973288   0.000000
     9  H    4.802432   0.979161   1.578572   0.000000
 Stoichiometry    CH3ClO4
 Framework group  C1[X(CH3ClO4)]
 Deg. of freedom    21
 Full point group                 C1      NOp   1
 Largest Abelian subgroup         C1      NOp   1
 Largest concise Abelian subgroup C1      NOp   1
                         Standard orientation:                         
 ---------------------------------------------------------------------
 Center     Atomic      Atomic             Coordinates (Angstroms)
 Number     Number       Type             X           Y           Z
 ---------------------------------------------------------------------
      1          6           0        0.115222    0.792223    0.079714
      2          8           0       -0.420609    1.743494   -0.446847
      3          8           0        1.403261    0.744705    0.532110
      4          1           0        1.706554   -0.145753    0.866457
      5          8           0       -0.450890   -0.466485    0.392159
      6         17           0       -2.210929   -0.663683   -0.087879
      7          8           0        3.061178   -1.056777   -0.339894
      8          1           0        3.917625   -0.647899   -0.124007
      9          1           0        2.526759   -0.396575   -0.827014
 ---------------------------------------------------------------------
 Rotational constants (GHZ):      4.3527709      1.2748934      1.0423448
 Standard basis: 6-311G (5D, 7F)
 There are    95 symmetry adapted cartesian basis functions of A   symmetry.
 There are    95 symmetry adapted basis functions of A   symmetry.
    95 basis functions,   188 primitive gaussians,    95 cartesian basis functions
    29 alpha electrons       29 beta electrons
       nuclear repulsion energy       289.4344606324 Hartrees.
 NAtoms=    9 NActive=    9 NUniq=    9 SFac= 1.00D+00 NAtFMM=   60 NAOKFM=F Big=F
 Integral buffers will be    131072 words long.
 Raffenetti 2 integral format.
 Two-electron integral symmetry is turned on.
 One-electron integrals computed using PRISM.
 NBasis=    95 RedAO= T EigKep=  1.15D-02  NBF=    95
 NBsUse=    95 1.00D-06 EigRej= -1.00D+00 NBFU=    95
 Initial guess from the checkpoint file:  "HClCO3-h2o.chk"
 B after Tr=     0.000000    0.000000    0.000000
         Rot=    0.999943   -0.002675    0.000774   -0.010354 Ang=  -1.23 deg.
 ExpMin= 1.03D-01 ExpMax= 1.06D+05 ExpMxC= 3.62D+03 IAcc=2 IRadAn=         4 AccDes= 0.00D+00
 Harris functional with IExCor=  402 and IRadAn=       4 diagonalized for initial guess.
 HarFok:  IExCor=  402 AccDes= 0.00D+00 IRadAn=         4 IDoV= 1 UseB2=F ITyADJ=14
 ICtDFT=  3500011 ScaDFX=  1.000000  1.000000  1.000000  1.000000
 FoFCou: FMM=F IPFlag=           0 FMFlag=      100000 FMFlg1=           0
         NFxFlg=           0 DoJE=T BraDBF=F KetDBF=T FulRan=T
         wScrn=  0.000000 ICntrl=     500 IOpCl=  0 I1Cent=   200000004 NGrid=           0
         NMat0=    1 NMatS0=      1 NMatT0=    0 NMatD0=    1 NMtDS0=    0 NMtDT0=    0
 Petite list used in FoFCou.
 Keep R1 ints in memory in canonical form, NReq=11361344.
 Requested convergence on RMS density matrix=1.00D-08 within 128 cycles.
 Requested convergence on MAX density matrix=1.00D-06.
 Requested convergence on             energy=1.00D-06.
 No special actions if energy rises.
 Integral accuracy reduced to 1.0D-05 until final iterations.
 Initial convergence to 1.0D-05 achieved.  Increase integral accuracy.
 SCF Done:  E(RB3LYP) =  -800.937101057     A.U. after   14 cycles
            NFock= 14  Conv=0.51D-08     -V/T= 2.0024
 Calling FoFJK, ICntrl=      2127 FMM=F ISym2X=0 I1Cent= 0 IOpClX= 0 NMat=1 NMatS=1 NMatT=0.
 ***** Axes restored to original set *****
 -------------------------------------------------------------------
 Center     Atomic                   Forces (Hartrees/Bohr)
 Number     Number              X              Y              Z
 -------------------------------------------------------------------
      1        6          -0.001163777    0.004748437    0.008220707
      2        8           0.000564687   -0.008271969   -0.002309680
      3        8          -0.005009876   -0.004647296    0.000512051
      4        1           0.000847701    0.008890745    0.000047399
      5        8           0.000459649    0.001573644   -0.000726356
      6       17           0.000668721    0.000258410   -0.000255357
      7        8          -0.000099017    0.004545555    0.005215362
      8        1          -0.000603218   -0.001707547   -0.002372359
      9        1           0.004335130   -0.005389979   -0.008331768
 -------------------------------------------------------------------
 Cartesian Forces:  Max     0.008890745 RMS     0.004172765

 GradGradGradGradGradGradGradGradGradGradGradGradGradGradGradGradGradGrad
 Berny optimization.
 Using GEDIIS/GDIIS optimizer.
 FormGI is forming the generalized inverse of G from B-inverse, IUseBI=4.
 Internal  Forces:  Max     0.008466331 RMS     0.003076016
 Search for a local minimum.
 Step number   4 out of a maximum of   41
 All quantities printed in internal units (Hartrees-Bohrs-Radians)
 Mixed Optimization -- RFO/linear search
 Update second derivatives using D2CorX and points    3    4
 DE= -4.51D-03 DEPred=-3.74D-03 R= 1.21D+00
 TightC=F SS=  1.41D+00  RLast= 3.02D-01 DXNew= 8.4853D-01 9.0730D-01
 Trust test= 1.21D+00 RLast= 3.02D-01 DXMaxT set to 8.49D-01
 ITU=  1  0  1  0
 Use linear search instead of GDIIS.
     Eigenvalues ---    0.00426   0.01847   0.02498   0.02579   0.03620
     Eigenvalues ---    0.05561   0.06072   0.07889   0.10503   0.11618
     Eigenvalues ---    0.13612   0.24772   0.24990   0.28263   0.31755
     Eigenvalues ---    0.47029   0.48576   0.52894   0.55438   0.59576
     Eigenvalues ---    1.10551
 RFO step:  Lambda=-2.63407460D-03 EMin= 4.25748871D-03
 Quartic linear search produced a step of  0.44386.
 Iteration  1 RMS(Cart)=  0.08199673 RMS(Int)=  0.00550167
 Iteration  2 RMS(Cart)=  0.00462220 RMS(Int)=  0.00215480
 Iteration  3 RMS(Cart)=  0.00002260 RMS(Int)=  0.00215473
 Iteration  4 RMS(Cart)=  0.00000007 RMS(Int)=  0.00215473
 Variable       Old X    -DE/DX   Delta X   Delta X   Delta X     New X
                                 (Linear)    (Quad)   (Total)
    R1        2.29062  -0.00847  -0.00648  -0.00789  -0.01437   2.27626
    R2        2.58137  -0.00112  -0.01096   0.00025  -0.01071   2.57066
    R3        2.67411  -0.00199  -0.00867  -0.00328  -0.01195   2.66216
    R4        1.88660  -0.00814  -0.01379  -0.01607  -0.03022   1.85638
    R5        3.96932   0.00607   0.03978   0.09320   0.13107   4.10039
    R6        3.83584  -0.00028   0.01122   0.01350   0.02643   3.86227
    R7        3.58724   0.00095   0.02303   0.05140   0.07474   3.66198
    R8        3.46756  -0.00054  -0.00056   0.00349   0.00293   3.47049
    R9        1.83925  -0.00060  -0.00025  -0.00081  -0.00106   1.83819
   R10        1.85035  -0.00419  -0.01142  -0.00914  -0.02014   1.83021
    A1        2.19936  -0.00071  -0.00289  -0.00253  -0.00738   2.19198
    A2        2.23589  -0.00099   0.01049  -0.00541   0.00311   2.23900
    A3        1.84747   0.00177  -0.00739   0.01188   0.00253   1.85000
    A4        2.01352   0.00125  -0.02806  -0.00098  -0.02751   1.98600
    A5        1.88489   0.00474   0.02861   0.07619   0.10684   1.99174
    A6        1.98670   0.00406   0.01699   0.03949   0.05225   2.03895
    A7        2.00595  -0.00150  -0.02946  -0.00408  -0.03354   1.97241
    A8        1.84094   0.00160   0.00814   0.02805   0.03791   1.87885
    A9        1.88322   0.00166  -0.00289   0.01612   0.01157   1.89479
   A10        1.91387  -0.00244  -0.00383  -0.01887  -0.02660   1.88727
    D1       -3.05054   0.00126  -0.02041   0.06002   0.04378  -3.00676
    D2       -1.83394   0.00093  -0.01760   0.07149   0.04963  -1.78431
    D3        0.12165  -0.00089   0.01260  -0.07017  -0.05332   0.06833
    D4        1.33825  -0.00122   0.01541  -0.05870  -0.04747   1.29078
    D5        0.01365  -0.00073   0.01474  -0.04066  -0.02587  -0.01222
    D6        3.12380   0.00149  -0.01874   0.09326   0.07448  -3.08491
    D7        1.90993   0.00387   0.02548   0.04986   0.07625   1.98618
    D8       -2.30326   0.00176   0.08141   0.11226   0.19238  -2.11088
    D9        1.41027   0.00123   0.03034   0.08266   0.11419   1.52446
   D10       -0.39546  -0.00021   0.03504   0.07052   0.10744  -0.28802
   D11       -1.56576  -0.00288  -0.03289  -0.07182  -0.10346  -1.66922
         Item               Value     Threshold  Converged?
 Maximum Force            0.008466     0.000450     NO 
 RMS     Force            0.003076     0.000300     NO 
 Maximum Displacement     0.247738     0.001800     NO 
 RMS     Displacement     0.081208     0.001200     NO 
 Predicted change in Energy=-1.989609D-03
 GradGradGradGradGradGradGradGradGradGradGradGradGradGradGradGradGradGrad

                          Input orientation:                          
 ---------------------------------------------------------------------
 Center     Atomic      Atomic             Coordinates (Angstroms)
 Number     Number       Type             X           Y           Z
 ---------------------------------------------------------------------
      1          6           0       -1.085976    0.453857    0.188434
      2          8           0       -1.213696    1.647681    0.285363
      3          8           0        0.094888   -0.207562    0.052082
      4          1           0       -0.007327   -1.167074   -0.132062
      5          8           0       -2.092949   -0.527451    0.101059
      6         17           0       -3.788229    0.175637    0.167651
      7          8           0        0.616395   -1.826277   -1.963360
      8          1           0        1.563373   -2.037503   -1.893956
      9          1           0        0.515238   -0.863121   -1.973187
 ---------------------------------------------------------------------
                    Distance matrix (angstroms):
                    1          2          3          4          5
     1  C    0.000000
     2  O    1.204542   0.000000
     3  O    1.360333   2.282266   0.000000
     4  H    1.973225   3.090698   0.982354   0.000000
     5  O    1.408756   2.353349   2.211642   2.193920   0.000000
     6  Cl   2.716618   2.967994   3.903690   4.023422   1.836502
     7  O    3.567533   4.524861   2.637084   2.043827   3.645452
     8  H    4.190736   5.103148   3.048310   2.515753   4.430466
     9  H    2.995149   3.793993   2.169831   1.937835   3.349300
                    6          7          8          9
     6  Cl   0.000000
     7  O    5.286736   0.000000
     8  H    6.147182   0.972728   0.000000
     9  H    4.917523   0.968504   1.576083   0.000000
 Stoichiometry    CH3ClO4
 Framework group  C1[X(CH3ClO4)]
 Deg. of freedom    21
 Full point group                 C1      NOp   1
 Largest Abelian subgroup         C1      NOp   1
 Largest concise Abelian subgroup C1      NOp   1
                         Standard orientation:                         
 ---------------------------------------------------------------------
 Center     Atomic      Atomic             Coordinates (Angstroms)
 Number     Number       Type             X           Y           Z
 ---------------------------------------------------------------------
      1          6           0        0.071291    0.810785    0.108186
      2          8           0       -0.491976    1.721480   -0.443435
      3          8           0        1.380072    0.797643    0.478897
      4          1           0        1.690144   -0.074703    0.807360
      5          8           0       -0.433328   -0.467049    0.419786
      6         17           0       -2.181868   -0.693322   -0.094170
      7          8           0        3.088178   -1.043138   -0.326159
      8          1           0        3.964981   -0.731504   -0.042784
      9          1           0        2.665313   -0.343526   -0.845512
 ---------------------------------------------------------------------
 Rotational constants (GHZ):      4.3237762      1.2806832      1.0416255
 Standard basis: 6-311G (5D, 7F)
 There are    95 symmetry adapted cartesian basis functions of A   symmetry.
 There are    95 symmetry adapted basis functions of A   symmetry.
    95 basis functions,   188 primitive gaussians,    95 cartesian basis functions
    29 alpha electrons       29 beta electrons
       nuclear repulsion energy       290.1073866854 Hartrees.
 NAtoms=    9 NActive=    9 NUniq=    9 SFac= 1.00D+00 NAtFMM=   60 NAOKFM=F Big=F
 Integral buffers will be    131072 words long.
 Raffenetti 2 integral format.
 Two-electron integral symmetry is turned on.
 One-electron integrals computed using PRISM.
 NBasis=    95 RedAO= T EigKep=  1.14D-02  NBF=    95
 NBsUse=    95 1.00D-06 EigRej= -1.00D+00 NBFU=    95
 Initial guess from the checkpoint file:  "HClCO3-h2o.chk"
 B after Tr=     0.000000    0.000000    0.000000
         Rot=    0.999951    0.005633    0.000276   -0.008109 Ang=   1.13 deg.
 ExpMin= 1.03D-01 ExpMax= 1.06D+05 ExpMxC= 3.62D+03 IAcc=2 IRadAn=         4 AccDes= 0.00D+00
 Harris functional with IExCor=  402 and IRadAn=       4 diagonalized for initial guess.
 HarFok:  IExCor=  402 AccDes= 0.00D+00 IRadAn=         4 IDoV= 1 UseB2=F ITyADJ=14
 ICtDFT=  3500011 ScaDFX=  1.000000  1.000000  1.000000  1.000000
 FoFCou: FMM=F IPFlag=           0 FMFlag=      100000 FMFlg1=           0
         NFxFlg=           0 DoJE=T BraDBF=F KetDBF=T FulRan=T
         wScrn=  0.000000 ICntrl=     500 IOpCl=  0 I1Cent=   200000004 NGrid=           0
         NMat0=    1 NMatS0=      1 NMatT0=    0 NMatD0=    1 NMtDS0=    0 NMtDT0=    0
 Petite list used in FoFCou.
 Keep R1 ints in memory in canonical form, NReq=11361344.
 Requested convergence on RMS density matrix=1.00D-08 within 128 cycles.
 Requested convergence on MAX density matrix=1.00D-06.
 Requested convergence on             energy=1.00D-06.
 No special actions if energy rises.
 Integral accuracy reduced to 1.0D-05 until final iterations.
 Initial convergence to 1.0D-05 achieved.  Increase integral accuracy.
 SCF Done:  E(RB3LYP) =  -800.939049180     A.U. after   14 cycles
            NFock= 14  Conv=0.56D-08     -V/T= 2.0023
 Calling FoFJK, ICntrl=      2127 FMM=F ISym2X=0 I1Cent= 0 IOpClX= 0 NMat=1 NMatS=1 NMatT=0.
 ***** Axes restored to original set *****
 -------------------------------------------------------------------
 Center     Atomic                   Forces (Hartrees/Bohr)
 Number     Number              X              Y              Z
 -------------------------------------------------------------------
      1        6           0.003287521    0.000635436   -0.006381929
      2        8          -0.001623865    0.004163256    0.004207441
      3        8          -0.001082338    0.000593920    0.004897813
      4        1           0.002329375   -0.004571058   -0.002731588
      5        8          -0.004679240    0.002256940    0.002492793
      6       17          -0.001100298   -0.002071392    0.000162618
      7        8           0.001947425   -0.003805197    0.006538668
      8        1          -0.000936146   -0.001516023   -0.002319144
      9        1           0.001857565    0.004314119   -0.006866671
 -------------------------------------------------------------------
 Cartesian Forces:  Max     0.006866671 RMS     0.003477074

 GradGradGradGradGradGradGradGradGradGradGradGradGradGradGradGradGradGrad
 Berny optimization.
 Using GEDIIS/GDIIS optimizer.
 FormGI is forming the generalized inverse of G from B-inverse, IUseBI=4.
 Internal  Forces:  Max     0.008169524 RMS     0.003281745
 Search for a local minimum.
 Step number   5 out of a maximum of   41
 All quantities printed in internal units (Hartrees-Bohrs-Radians)
 Mixed Optimization -- RFO/linear search
 Update second derivatives using D2CorX and points    4    5
 DE= -1.95D-03 DEPred=-1.99D-03 R= 9.79D-01
 TightC=F SS=  1.41D+00  RLast= 3.71D-01 DXNew= 1.4270D+00 1.1122D+00
 Trust test= 9.79D-01 RLast= 3.71D-01 DXMaxT set to 1.11D+00
 ITU=  1  1  0  1  0
 Use linear search instead of GDIIS.
     Eigenvalues ---    0.00376   0.01750   0.01879   0.02520   0.04933
     Eigenvalues ---    0.05509   0.06362   0.07940   0.09277   0.11516
     Eigenvalues ---    0.13232   0.24962   0.25333   0.28838   0.31951
     Eigenvalues ---    0.48271   0.48654   0.55316   0.55990   0.64216
     Eigenvalues ---    1.13894
 RFO step:  Lambda=-3.27270352D-03 EMin= 3.76293091D-03
 Quartic linear search produced a step of  0.09239.
 Iteration  1 RMS(Cart)=  0.13422620 RMS(Int)=  0.01058383
 Iteration  2 RMS(Cart)=  0.00977309 RMS(Int)=  0.00136915
 Iteration  3 RMS(Cart)=  0.00014769 RMS(Int)=  0.00136376
 Iteration  4 RMS(Cart)=  0.00000014 RMS(Int)=  0.00136376
 Variable       Old X    -DE/DX   Delta X   Delta X   Delta X     New X
                                 (Linear)    (Quad)   (Total)
    R1        2.27626   0.00464  -0.00133  -0.00610  -0.00743   2.26883
    R2        2.57066   0.00605  -0.00099   0.00302   0.00203   2.57268
    R3        2.66216   0.00388  -0.00110  -0.00040  -0.00150   2.66066
    R4        1.85638   0.00425  -0.00279  -0.01346  -0.01629   1.84009
    R5        4.10039   0.00481   0.01211   0.15895   0.16997   4.27036
    R6        3.86227  -0.00222   0.00244   0.02038   0.02385   3.88612
    R7        3.66198   0.00095   0.00690   0.07233   0.07933   3.74131
    R8        3.47049   0.00022   0.00027   0.00809   0.00836   3.47885
    R9        1.83819  -0.00073  -0.00010  -0.00161  -0.00171   1.83648
   R10        1.83021   0.00534  -0.00186  -0.00703  -0.00870   1.82151
    A1        2.19198   0.00097  -0.00068   0.00048  -0.00250   2.18949
    A2        2.23900  -0.00213   0.00029  -0.00269  -0.00468   2.23432
    A3        1.85000   0.00149   0.00023   0.01034   0.00829   1.85828
    A4        1.98600   0.00410  -0.00254   0.01260   0.01187   1.99787
    A5        1.99174   0.00425   0.00987   0.12984   0.13975   2.13149
    A6        2.03895   0.00293   0.00483   0.06378   0.06651   2.10546
    A7        1.97241   0.00817  -0.00310   0.00499   0.00189   1.97429
    A8        1.87885   0.00197   0.00350   0.05386   0.05883   1.93768
    A9        1.89479   0.00109   0.00107   0.02032   0.01972   1.91451
   A10        1.88727  -0.00217  -0.00246  -0.03716  -0.04168   1.84560
    D1       -3.00676  -0.00276   0.00404  -0.06637  -0.06022  -3.06698
    D2       -1.78431  -0.00222   0.00459  -0.06511  -0.06267  -1.84698
    D3        0.06833   0.00210  -0.00493   0.05610   0.05331   0.12164
    D4        1.29078   0.00264  -0.00439   0.05736   0.05087   1.34164
    D5       -0.01222   0.00203  -0.00239   0.05388   0.05136   0.03914
    D6       -3.08491  -0.00317   0.00688  -0.07319  -0.06617   3.13210
    D7        1.98618   0.00290   0.00704   0.09829   0.10645   2.09263
    D8       -2.11088  -0.00125   0.01777   0.13200   0.14916  -1.96172
    D9        1.52446   0.00147   0.01055   0.08883   0.10066   1.62512
   D10       -0.28802   0.00058   0.00993   0.07548   0.08589  -0.20214
   D11       -1.66922  -0.00252  -0.00956  -0.10297  -0.11146  -1.78068
         Item               Value     Threshold  Converged?
 Maximum Force            0.008170     0.000450     NO 
 RMS     Force            0.003282     0.000300     NO 
 Maximum Displacement     0.409915     0.001800     NO 
 RMS     Displacement     0.137585     0.001200     NO 
 Predicted change in Energy=-1.842087D-03
 GradGradGradGradGradGradGradGradGradGradGradGradGradGradGradGradGradGrad

                          Input orientation:                          
 ---------------------------------------------------------------------
 Center     Atomic      Atomic             Coordinates (Angstroms)
 Number     Number       Type             X           Y           Z
 ---------------------------------------------------------------------
      1          6           0       -1.147457    0.483569    0.164202
      2          8           0       -1.266793    1.659263    0.376261
      3          8           0        0.033398   -0.172117   -0.006339
      4          1           0       -0.057743   -1.114306   -0.234670
      5          8           0       -2.159079   -0.493882    0.104524
      6         17           0       -3.848967    0.200009    0.332148
      7          8           0        0.708344   -1.844019   -1.998077
      8          1           0        1.607860   -2.189212   -1.870980
      9          1           0        0.732155   -0.881120   -2.035044
 ---------------------------------------------------------------------
                    Distance matrix (angstroms):
                    1          2          3          4          5
     1  C    0.000000
     2  O    1.200611   0.000000
     3  O    1.361406   2.278340   0.000000
     4  H    1.974786   3.086701   0.973736   0.000000
     5  O    1.407961   2.346498   2.218734   2.217113   0.000000
     6  Cl   2.721539   2.966310   3.914820   4.052417   1.840929
     7  O    3.679282   4.670292   2.686602   2.056447   3.803409
     8  H    4.344824   5.303252   3.166148   2.570442   4.578929
     9  H    3.198750   4.032831   2.259777   1.979814   3.617588
                    6          7          8          9
     6  Cl   0.000000
     7  O    5.511541   0.000000
     8  H    6.351308   0.971824   0.000000
     9  H    5.268692   0.963902   1.582682   0.000000
 Stoichiometry    CH3ClO4
 Framework group  C1[X(CH3ClO4)]
 Deg. of freedom    21
 Full point group                 C1      NOp   1
 Largest Abelian subgroup         C1      NOp   1
 Largest concise Abelian subgroup C1      NOp   1
                         Standard orientation:                         
 ---------------------------------------------------------------------
 Center     Atomic      Atomic             Coordinates (Angstroms)
 Number     Number       Type             X           Y           Z
 ---------------------------------------------------------------------
      1          6           0        0.047969    0.778819    0.068313
      2          8           0       -0.546581    1.729437   -0.360992
      3          8           0        1.356280    0.769848    0.444701
      4          1           0        1.694022   -0.104438    0.708739
      5          8           0       -0.455436   -0.506954    0.343493
      6         17           0       -2.235716   -0.693461   -0.086432
      7          8           0        3.264860   -0.968827   -0.298374
      8          1           0        4.111605   -0.757622    0.129244
      9          1           0        2.960738   -0.210051   -0.809134
 ---------------------------------------------------------------------
 Rotational constants (GHZ):      4.5475335      1.2012533      0.9875921
 Standard basis: 6-311G (5D, 7F)
 There are    95 symmetry adapted cartesian basis functions of A   symmetry.
 There are    95 symmetry adapted basis functions of A   symmetry.
    95 basis functions,   188 primitive gaussians,    95 cartesian basis functions
    29 alpha electrons       29 beta electrons
       nuclear repulsion energy       287.7829131594 Hartrees.
 NAtoms=    9 NActive=    9 NUniq=    9 SFac= 1.00D+00 NAtFMM=   60 NAOKFM=F Big=F
 Integral buffers will be    131072 words long.
 Raffenetti 2 integral format.
 Two-electron integral symmetry is turned on.
 One-electron integrals computed using PRISM.
 NBasis=    95 RedAO= T EigKep=  1.13D-02  NBF=    95
 NBsUse=    95 1.00D-06 EigRej= -1.00D+00 NBFU=    95
 Initial guess from the checkpoint file:  "HClCO3-h2o.chk"
 B after Tr=     0.000000    0.000000    0.000000
         Rot=    0.999918   -0.010169    0.002720   -0.007312 Ang=  -1.47 deg.
 ExpMin= 1.03D-01 ExpMax= 1.06D+05 ExpMxC= 3.62D+03 IAcc=2 IRadAn=         4 AccDes= 0.00D+00
 Harris functional with IExCor=  402 and IRadAn=       4 diagonalized for initial guess.
 HarFok:  IExCor=  402 AccDes= 0.00D+00 IRadAn=         4 IDoV= 1 UseB2=F ITyADJ=14
 ICtDFT=  3500011 ScaDFX=  1.000000  1.000000  1.000000  1.000000
 FoFCou: FMM=F IPFlag=           0 FMFlag=      100000 FMFlg1=           0
         NFxFlg=           0 DoJE=T BraDBF=F KetDBF=T FulRan=T
         wScrn=  0.000000 ICntrl=     500 IOpCl=  0 I1Cent=   200000004 NGrid=           0
         NMat0=    1 NMatS0=      1 NMatT0=    0 NMatD0=    1 NMtDS0=    0 NMtDT0=    0
 Petite list used in FoFCou.
 Keep R1 ints in memory in canonical form, NReq=11361344.
 Requested convergence on RMS density matrix=1.00D-08 within 128 cycles.
 Requested convergence on MAX density matrix=1.00D-06.
 Requested convergence on             energy=1.00D-06.
 No special actions if energy rises.
 Integral accuracy reduced to 1.0D-05 until final iterations.
 Initial convergence to 1.0D-05 achieved.  Increase integral accuracy.
 SCF Done:  E(RB3LYP) =  -800.941080841     A.U. after   14 cycles
            NFock= 14  Conv=0.63D-08     -V/T= 2.0023
 Calling FoFJK, ICntrl=      2127 FMM=F ISym2X=0 I1Cent= 0 IOpClX= 0 NMat=1 NMatS=1 NMatT=0.
 ***** Axes restored to original set *****
 -------------------------------------------------------------------
 Center     Atomic                   Forces (Hartrees/Bohr)
 Number     Number              X              Y              Z
 -------------------------------------------------------------------
      1        6           0.005380101   -0.006296053    0.005930343
      2        8          -0.002138090    0.011233228   -0.000164725
      3        8          -0.001589348    0.007155965    0.000848659
      4        1           0.001136035   -0.011606166   -0.005429645
      5        8          -0.005250381    0.001184811   -0.000758313
      6       17           0.000652612   -0.002288813   -0.000555363
      7        8          -0.000684987   -0.007445168    0.008074748
      8        1          -0.000838428   -0.000293370   -0.002073712
      9        1           0.003332487    0.008355567   -0.005871991
 -------------------------------------------------------------------
 Cartesian Forces:  Max     0.011606166 RMS     0.005205331

 GradGradGradGradGradGradGradGradGradGradGradGradGradGradGradGradGradGrad
 Berny optimization.
 Using GEDIIS/GDIIS optimizer.
 FormGI is forming the generalized inverse of G from B-inverse, IUseBI=4.
 Internal  Forces:  Max     0.011181097 RMS     0.003917680
 Search for a local minimum.
 Step number   6 out of a maximum of   41
 All quantities printed in internal units (Hartrees-Bohrs-Radians)
 Mixed Optimization -- RFO/linear search
 Update second derivatives using D2CorX and points    5    6
 DE= -2.03D-03 DEPred=-1.84D-03 R= 1.10D+00
 TightC=F SS=  1.41D+00  RLast= 3.87D-01 DXNew= 1.8704D+00 1.1600D+00
 Trust test= 1.10D+00 RLast= 3.87D-01 DXMaxT set to 1.16D+00
 ITU=  1  1  1  0  1  0
 Use linear search instead of GDIIS.
     Eigenvalues ---    0.00362   0.01139   0.01856   0.02519   0.05283
     Eigenvalues ---    0.06608   0.07216   0.07722   0.08947   0.11529
     Eigenvalues ---    0.12707   0.24986   0.25356   0.27585   0.31988
     Eigenvalues ---    0.48034   0.48944   0.55369   0.57075   0.60174
     Eigenvalues ---    1.14536
 RFO step:  Lambda=-2.31845372D-03 EMin= 3.61879464D-03
 Quartic linear search produced a step of  0.37597.
 Iteration  1 RMS(Cart)=  0.11444988 RMS(Int)=  0.00877535
 Iteration  2 RMS(Cart)=  0.00742096 RMS(Int)=  0.00154221
 Iteration  3 RMS(Cart)=  0.00010083 RMS(Int)=  0.00154030
 Iteration  4 RMS(Cart)=  0.00000013 RMS(Int)=  0.00154030
 Variable       Old X    -DE/DX   Delta X   Delta X   Delta X     New X
                                 (Linear)    (Quad)   (Total)
    R1        2.26883   0.01118  -0.00279   0.00644   0.00364   2.27247
    R2        2.57268   0.00358   0.00076   0.00227   0.00303   2.57571
    R3        2.66066   0.00417  -0.00057   0.00574   0.00517   2.66583
    R4        1.84009   0.01052  -0.00612   0.01449   0.00818   1.84828
    R5        4.27036   0.00366   0.06390   0.12380   0.18640   4.45676
    R6        3.88612  -0.00425   0.00897  -0.02365  -0.01378   3.87234
    R7        3.74131   0.00100   0.02983   0.05256   0.08281   3.82412
    R8        3.47885  -0.00154   0.00314  -0.00247   0.00067   3.47952
    R9        1.83648  -0.00093  -0.00064  -0.00307  -0.00371   1.83277
   R10        1.82151   0.00885  -0.00327   0.00866   0.00595   1.82746
    A1        2.18949   0.00178  -0.00094   0.00687   0.00513   2.19461
    A2        2.23432  -0.00032  -0.00176   0.00396   0.00139   2.23571
    A3        1.85828  -0.00133   0.00312  -0.00870  -0.00639   1.85190
    A4        1.99787   0.00258   0.00446   0.01587   0.02405   2.02192
    A5        2.13149   0.00262   0.05254   0.10768   0.15933   2.29082
    A6        2.10546   0.00125   0.02501   0.04778   0.07021   2.17567
    A7        1.97429   0.00675   0.00071   0.01779   0.01850   1.99279
    A8        1.93768   0.00158   0.02212   0.05427   0.07807   2.01575
    A9        1.91451   0.00005   0.00741   0.00724   0.01154   1.92604
   A10        1.84560  -0.00219  -0.01567  -0.05081  -0.06774   1.77786
    D1       -3.06698   0.00100  -0.02264   0.02255   0.00220  -3.06477
    D2       -1.84698   0.00188  -0.02356   0.01961  -0.00625  -1.85323
    D3        0.12164  -0.00173   0.02004  -0.02309  -0.00075   0.12089
    D4        1.34164  -0.00086   0.01912  -0.02604  -0.00921   1.33244
    D5        0.03914  -0.00119   0.01931  -0.01674   0.00253   0.04167
    D6        3.13210   0.00171  -0.02488   0.03055   0.00571   3.13781
    D7        2.09263   0.00213   0.04002   0.09818   0.13980   2.23243
    D8       -1.96172  -0.00094   0.05608   0.07902   0.13481  -1.82691
    D9        1.62512   0.00060   0.03785   0.03858   0.07906   1.70418
   D10       -0.20214   0.00035   0.03229   0.03114   0.06238  -0.13976
   D11       -1.78068  -0.00208  -0.04191  -0.08515  -0.12585  -1.90653
         Item               Value     Threshold  Converged?
 Maximum Force            0.011181     0.000450     NO 
 RMS     Force            0.003918     0.000300     NO 
 Maximum Displacement     0.362456     0.001800     NO 
 RMS     Displacement     0.115742     0.001200     NO 
 Predicted change in Energy=-1.332965D-03
 GradGradGradGradGradGradGradGradGradGradGradGradGradGradGradGradGradGrad

                          Input orientation:                          
 ---------------------------------------------------------------------
 Center     Atomic      Atomic             Coordinates (Angstroms)
 Number     Number       Type             X           Y           Z
 ---------------------------------------------------------------------
      1          6           0       -1.191010    0.521530    0.186297
      2          8           0       -1.306131    1.686669    0.460704
      3          8           0       -0.017838   -0.124918   -0.065824
      4          1           0       -0.096850   -1.060371   -0.340232
      5          8           0       -2.201672   -0.460165    0.116279
      6         17           0       -3.898650    0.180600    0.432527
      7          8           0        0.775226   -1.861868   -2.012391
      8          1           0        1.614684   -2.324508   -1.864393
      9          1           0        0.923959   -0.908784   -2.080943
 ---------------------------------------------------------------------
                    Distance matrix (angstroms):
                    1          2          3          4          5
     1  C    0.000000
     2  O    1.202539   0.000000
     3  O    1.363009   2.284465   0.000000
     4  H    1.994199   3.106459   0.978067   0.000000
     5  O    1.410697   2.351492   2.216909   2.235828   0.000000
     6  Cl   2.740105   2.998364   3.924589   4.073186   1.841284
     7  O    3.792216   4.800037   2.726732   2.049154   3.918920
     8  H    4.491902   5.479669   3.276915   2.617338   4.686514
     9  H    3.414568   4.262587   2.358417   2.023636   3.846897
                    6          7          8          9
     6  Cl   0.000000
     7  O    5.656361   0.000000
     8  H    6.476748   0.969861   0.000000
     9  H    5.546336   0.967051   1.590053   0.000000
 Stoichiometry    CH3ClO4
 Framework group  C1[X(CH3ClO4)]
 Deg. of freedom    21
 Full point group                 C1      NOp   1
 Largest Abelian subgroup         C1      NOp   1
 Largest concise Abelian subgroup C1      NOp   1
                         Standard orientation:                         
 ---------------------------------------------------------------------
 Center     Atomic      Atomic             Coordinates (Angstroms)
 Number     Number       Type             X           Y           Z
 ---------------------------------------------------------------------
[...]
   104. RY*(   1) O   7                  0.00034     1.00042   
   105. RY*(   2) O   7                  0.00014     1.34340   
   106. RY*(   3) O   7                  0.00010     0.88852   
   107. RY*(   4) O   7                  0.00002     1.71918   
   108. RY*(   5) O   7                  0.00001     3.27470   
   109. RY*(   6) O   7                  0.00001     4.90896   
   110. RY*(   7) O   7                  0.00000     4.76203   
   111. RY*(   8) O   7                  0.00000     4.68530   
   112. RY*(   9) O   7                  0.00000     3.07040   
   113. RY*(  10) O   7                  0.00000     2.91489   
   114. RY*(  11) O   7                  0.00000     2.73051   
   115. RY*(  12) O   7                  0.00000    49.64306   
   116. RY*(  13) O   7                  0.00001     3.19743   
   117. RY*(   1) H   8                  0.00311     0.54985   
   118. RY*(   2) H   8                  0.00123     1.46588   
   119. RY*(   3) H   8                  0.00050     1.98839   
   120. RY*(   4) H   8                  0.00035     1.76807   
   121. RY*(   5) H   8                  0.00001     2.47088   
   122. RY*(   1) H   9                  0.00219     0.68889   
   123. RY*(   2) H   9                  0.00132     1.45998   
   124. RY*(   3) H   9                  0.00048     1.82115   
   125. RY*(   4) H   9                  0.00019     1.59422   
   126. RY*(   5) H   9                  0.00001     2.47857   
   133. BD*(   1) O   7 - H   8          0.00133     0.37571   
   134. BD*(   1) O   7 - H   9          0.00289     0.37566   
       -------------------------------
              Total Lewis    9.91702  ( 99.8567%)
        Valence non-Lewis    0.00423  (  0.0426%)
        Rydberg non-Lewis    0.01000  (  0.1007%)
       -------------------------------
            Total unit  2    9.93125  (100.0000%)
           Charge unit  2    0.06875
 1\1\GINC-INDIO\SP\RB3LYP\6-311G(d,p)\C1H3Cl1O4\SARARIOP\23-Jun-2017\0\
 \# B3LYP/6-311G** geom=check guess=read pop=nboread\\Title Card Requir
 ed\\0,1\C,0,-1.0960762859,0.6454452459,0.1762827895\O,0,-1.6743772346,
 1.4904064173,0.8186028864\O,0,0.1591810214,0.6499939058,-0.2754130574\
 H,0,0.4485603336,-0.1730017263,-0.8007559579\O,0,-1.6693135821,-0.6118
 60142,-0.2609270941\Cl,0,-3.4152975241,-0.879568397,0.231471337\O,0,0.
 6364246103,-1.5035195267,-1.5448217313\H,0,-0.1681688277,-2.0403503855
 ,-1.526088904\H,0,1.3807842691,-1.9293593915,-1.9863251382\\Version=AM
 64L-G09RevD.01\State=1-A\HF=-801.0845881\RMSD=2.578e-09\Dipole=0.83972
 29,-1.8132955,-1.1936944\Quadrupole=3.3027106,-2.5167439,-0.7859667,-4
 .1400674,-4.167087,1.5887119\PG=C01 [X(C1H3Cl1O4)]\\@


 Not by the face shall a man be known, but by the mask.
                               -- Karen Blixen
 Job cpu time:       0 days  0 hours  1 minutes 16.2 seconds.
 File lengths (MBytes):  RWF=      9 Int=      0 D2E=      0 Chk=      4 Scr=      1
 Normal termination of Gaussian 09 at Fri Jun 23 05:37:08 2017.
 Initial command:
 /usr/local/gaussian/gaussian09.d1/g09/l1.exe "/scratch/sarariop/HClCO3-h2o.com/Gau-28718.inp" -scrdir="/scratch/sarariop/HClCO3-h2o.com/"
 Default is to use a total of  10 processors:
                               10 via shared-memory
                                1 via Linda
 Entering Link 1 = /usr/local/gaussian/gaussian09.d1/g09/l1.exe PID=     32136.
  
 Copyright (c) 1988,1990,1992,1993,1995,1998,2003,2009,2013,
            Gaussian, Inc.  All Rights Reserved.
  
 This is part of the Gaussian(R) 09 program.  It is based on
 the Gaussian(R) 03 system (copyright 2003, Gaussian, Inc.),
 the Gaussian(R) 98 system (copyright 1998, Gaussian, Inc.),
 the Gaussian(R) 94 system (copyright 1995, Gaussian, Inc.),
 the Gaussian 92(TM) system (copyright 1992, Gaussian, Inc.),
 the Gaussian 90(TM) system (copyright 1990, Gaussian, Inc.),
 the Gaussian 88(TM) system (copyright 1988, Gaussian, Inc.),
 the Gaussian 86(TM) system (copyright 1986, Carnegie Mellon
 University), and the Gaussian 82(TM) system (copyright 1983,
 Carnegie Mellon University). Gaussian is a federally registered
 trademark of Gaussian, Inc.
  
 This software contains proprietary and confidential information,
 including trade secrets, belonging to Gaussian, Inc.
  
 This software is provided under written license and may be
 used, copied, transmitted, or stored only in accord with that
 written license.
  
 The following legend is applicable only to US Government
 contracts under FAR:
  
                    RESTRICTED RIGHTS LEGEND
  
 Use, reproduction and disclosure by the US Government is
 subject to restrictions as set forth in subparagraphs (a)
 and (c) of the Commercial Computer Software - Restricted
 Rights clause in FAR 52.227-19.
  
 Gaussian, Inc.
 340 Quinnipiac St., Bldg. 40, Wallingford CT 06492
  
  
 ---------------------------------------------------------------
 Warning -- This program may not be used in any manner that
 competes with the business of Gaussian, Inc. or will provide
 assistance to any competitor of Gaussian, Inc.  The licensee
 of this program is prohibited from giving any competitor of
 Gaussian, Inc. access to this program.  By using this program,
 the user acknowledges that Gaussian, Inc. is engaged in the
 business of creating and licensing software in the field of
 computational chemistry and represents and warrants to the
 licensee that it is not a competitor of Gaussian, Inc. and that
 it will not use this program in any manner prohibited above.
 ---------------------------------------------------------------
  

 Cite this work as:
 Gaussian 09, Revision D.01,
 M. J. Frisch, G. W. Trucks, H. B. Schlegel, G. E. Scuseria, 
 M. A. Robb, J. R. Cheeseman, G. Scalmani, V. Barone, B. Mennucci, 
 G. A. Petersson, H. Nakatsuji, M. Caricato, X. Li, H. P. Hratchian, 
 A. F. Izmaylov, J. Bloino, G. Zheng, J. L. Sonnenberg, M. Hada, 
 M. Ehara, K. Toyota, R. Fukuda, J. Hasegawa, M. Ishida, T. Nakajima, 
 Y. Honda, O. Kitao, H. Nakai, T. Vreven, J. A. Montgomery, Jr., 
 J. E. Peralta, F. Ogliaro, M. Bearpark, J. J. Heyd, E. Brothers, 
 K. N. Kudin, V. N. Staroverov, T. Keith, R. Kobayashi, J. Normand, 
 K. Raghavachari, A. Rendell, J. C. Burant, S. S. Iyengar, J. Tomasi, 
 M. Cossi, N. Rega, J. M. Millam, M. Klene, J. E. Knox, J. B. Cross, 
 V. Bakken, C. Adamo, J. Jaramillo, R. Gomperts, R. E. Stratmann, 
 O. Yazyev, A. J. Austin, R. Cammi, C. Pomelli, J. W. Ochterski, 
 R. L. Martin, K. Morokuma, V. G. Zakrzewski, G. A. Voth, 
 P. Salvador, J. J. Dannenberg, S. Dapprich, A. D. Daniels, 
 O. Farkas, J. B. Foresman, J. V. Ortiz, J. Cioslowski, 
 and D. J. Fox, Gaussian, Inc., Wallingford CT, 2013.
 
 ******************************************
 Gaussian 09:  AM64L-G09RevD.01 24-Apr-2013
                23-Jun-2017 
 ******************************************
 %chk=HClCO3-h2o.chk
 Default route:  MaxDisk=70GB
 -------------------------------------------------
 # B3LYP/6-311G** geom=check guess=read output=wfx
 -------------------------------------------------
 1/29=2,38=1/1;
 2/12=2,40=1/2;
 3/5=4,6=6,7=101,11=2,14=-4,16=1,25=1,30=1,74=-5,116=-2/1,2,3;
 4/5=1/1;
 5/5=2,38=6/2;
 6/7=2,8=2,9=2,10=2,28=1/1;
 99/5=1,6=200,9=1/99;
 -------------------
 Title Card Required
 -------------------
 Structure from the checkpoint file:  "HClCO3-h2o.chk"
 Charge =  0 Multiplicity = 1
 Redundant internal coordinates found in file.
 C,0,-1.0960762859,0.6454452459,0.1762827895
 O,0,-1.6743772346,1.4904064173,0.8186028864
 O,0,0.1591810214,0.6499939058,-0.2754130574
 H,0,0.4485603336,-0.1730017263,-0.8007559579
 O,0,-1.6693135821,-0.611860142,-0.2609270941
 Cl,0,-3.4152975241,-0.879568397,0.231471337
 O,0,0.6364246103,-1.5035195267,-1.5448217313
 H,0,-0.1681688277,-2.0403503855,-1.526088904
 H,0,1.3807842691,-1.9293593915,-1.9863251382
 Recover connectivity data from disk.
                          Input orientation:                          
 ---------------------------------------------------------------------
 Center     Atomic      Atomic             Coordinates (Angstroms)
 Number     Number       Type             X           Y           Z
 ---------------------------------------------------------------------
      1          6           0       -1.096076    0.645445    0.176283
      2          8           0       -1.674377    1.490406    0.818603
      3          8           0        0.159181    0.649994   -0.275413
      4          1           0        0.448560   -0.173002   -0.800756
      5          8           0       -1.669314   -0.611860   -0.260927
      6         17           0       -3.415298   -0.879568    0.231471
      7          8           0        0.636425   -1.503520   -1.544822
      8          1           0       -0.168169   -2.040350   -1.526089
      9          1           0        1.380784   -1.929359   -1.986325
 ---------------------------------------------------------------------
                    Distance matrix (angstroms):
                    1          2          3          4          5
     1  C    0.000000
     2  O    1.208704   0.000000
     3  O    1.334062   2.294581   0.000000
     4  H    2.002589   3.145809   1.018355   0.000000
     5  O    1.449334   2.363247   2.221684   2.229216   0.000000
     6  Cl   2.776238   2.998718   3.920891   4.061296   1.833735
     7  O    3.252969   4.459728   2.544952   1.535970   2.785654
     8  H    3.312488   4.498054   2.984845   2.096057   2.427891
     9  H    4.176282   5.375540   3.327551   2.315040   3.743781
                    6          7          8          9
     6  Cl   0.000000
     7  O    4.467772   0.000000
     8  H    3.870436   0.967424   0.000000
     9  H    5.387308   0.964539   1.619689   0.000000
 Stoichiometry    CH3ClO4
 Framework group  C1[X(CH3ClO4)]
 Deg. of freedom    21
 Full point group                 C1      NOp   1
 Largest Abelian subgroup         C1      NOp   1
 Largest concise Abelian subgroup C1      NOp   1
                         Standard orientation:                         
 ---------------------------------------------------------------------
 Center     Atomic      Atomic             Coordinates (Angstroms)
 Number     Number       Type             X           Y           Z
 ---------------------------------------------------------------------
      1          6           0        0.118153    1.017447    0.000018
      2          8           0       -0.722330    1.886092    0.003259
      3          8           0        1.446778    1.137736   -0.002784
      4          1           0        1.974796    0.266965   -0.004298
      5          8           0       -0.150148   -0.406836   -0.001614
      6         17           0       -1.927004   -0.860006    0.000075
      7          8           0        2.530343   -1.165015   -0.002741
      8          1           0        1.821595   -1.823480    0.000288
      9          1           0        3.416617   -1.543868    0.033666
 ---------------------------------------------------------------------
 Rotational constants (GHZ):      3.4763099      1.7213790      1.1512980
 Standard basis: 6-311G(d,p) (5D, 7F)
 There are   140 symmetry adapted cartesian basis functions of A   symmetry.
 There are   134 symmetry adapted basis functions of A   symmetry.
   134 basis functions,   233 primitive gaussians,   140 cartesian basis functions
    29 alpha electrons       29 beta electrons
       nuclear repulsion energy       296.4725393043 Hartrees.
 NAtoms=    9 NActive=    9 NUniq=    9 SFac= 1.00D+00 NAtFMM=   60 NAOKFM=F Big=F
 Integral buffers will be    131072 words long.
 Raffenetti 2 integral format.
 Two-electron integral symmetry is turned on.
 One-electron integrals computed using PRISM.
 NBasis=   134 RedAO= T EigKep=  7.50D-03  NBF=   134
 NBsUse=   134 1.00D-06 EigRej= -1.00D+00 NBFU=   134
 Initial guess from the checkpoint file:  "HClCO3-h2o.chk"
 B after Tr=     0.000000    0.000000    0.000000
         Rot=    1.000000    0.000000    0.000000    0.000000 Ang=   0.00 deg.
 Keep R1 ints in memory in canonical form, NReq=42391866.
 Requested convergence on RMS density matrix=1.00D-08 within 128 cycles.
 Requested convergence on MAX density matrix=1.00D-06.
 Requested convergence on             energy=1.00D-06.
 No special actions if energy rises.
 SCF Done:  E(RB3LYP) =  -801.084588102     A.U. after    1 cycles
            NFock=  1  Conv=0.11D-08     -V/T= 2.0028

 **********************************************************************

            Population analysis using the SCF density.

 **********************************************************************

 Orbital symmetries:
       Occupied  (A) (A) (A) (A) (A) (A) (A) (A) (A) (A) (A) (A)
                 (A) (A) (A) (A) (A) (A) (A) (A) (A) (A) (A) (A)
                 (A) (A) (A) (A) (A)
       Virtual   (A) (A) (A) (A) (A) (A) (A) (A) (A) (A) (A) (A)
                 (A) (A) (A) (A) (A) (A) (A) (A) (A) (A) (A) (A)
                 (A) (A) (A) (A) (A) (A) (A) (A) (A) (A) (A) (A)
                 (A) (A) (A) (A) (A) (A) (A) (A) (A) (A) (A) (A)
                 (A) (A) (A) (A) (A) (A) (A) (A) (A) (A) (A) (A)
                 (A) (A) (A) (A) (A) (A) (A) (A) (A) (A) (A) (A)
                 (A) (A) (A) (A) (A) (A) (A) (A) (A) (A) (A) (A)
                 (A) (A) (A) (A) (A) (A) (A) (A) (A) (A) (A) (A)
                 (A) (A) (A) (A) (A) (A) (A) (A) (A)
 The electronic state is 1-A.
 Alpha  occ. eigenvalues -- -101.60835 -19.22010 -19.17405 -19.16677 -19.11966
 Alpha  occ. eigenvalues --  -10.36025  -9.51700  -7.28654  -7.26985  -7.26978
 Alpha  occ. eigenvalues --   -1.13217  -1.06839  -1.03682  -1.03054  -0.82480
 Alpha  occ. eigenvalues --   -0.64116  -0.60443  -0.56910  -0.48619  -0.48146
 Alpha  occ. eigenvalues --   -0.46516  -0.43008  -0.39051  -0.38456  -0.37177
 Alpha  occ. eigenvalues --   -0.33588  -0.32770  -0.31238  -0.30706
 Alpha virt. eigenvalues --   -0.13587  -0.00507   0.02230   0.07127   0.12057
 Alpha virt. eigenvalues --    0.16812   0.25600   0.27173   0.27621   0.29445
 Alpha virt. eigenvalues --    0.32046   0.33214   0.34425   0.38770   0.41147
 Alpha virt. eigenvalues --    0.43352   0.49623   0.57964   0.62381   0.66651
 Alpha virt. eigenvalues --    0.69165   0.70538   0.72041   0.76481   0.80859
 Alpha virt. eigenvalues --    0.81025   0.83363   0.84033   0.86845   0.88972
 Alpha virt. eigenvalues --    0.89461   0.93535   0.98835   1.01921   1.04781
 Alpha virt. eigenvalues --    1.18272   1.19227   1.20567   1.21113   1.32126
 Alpha virt. eigenvalues --    1.36212   1.37943   1.43206   1.48951   1.53649
 Alpha virt. eigenvalues --    1.55769   1.56963   1.65006   1.69587   1.75360
 Alpha virt. eigenvalues --    1.85039   1.91786   1.97091   2.06537   2.10338
 Alpha virt. eigenvalues --    2.13622   2.22402   2.37477   2.39570   2.47252
 Alpha virt. eigenvalues --    2.54939   2.67741   2.75324   2.79646   2.81180
 Alpha virt. eigenvalues --    2.86489   2.93297   2.99772   3.00682   3.06723
 Alpha virt. eigenvalues --    3.07296   3.11262   3.17799   3.25037   3.34802
 Alpha virt. eigenvalues --    3.35169   3.44584   3.52659   3.63090   3.69527
 Alpha virt. eigenvalues --    3.80639   3.88896   3.92509   4.68579   4.74173
 Alpha virt. eigenvalues --    4.79860   4.89189   4.90267   4.94697   5.06821
 Alpha virt. eigenvalues --    5.16039   5.37458   5.59076   5.61274   5.88727
 Alpha virt. eigenvalues --    9.36266  23.64855  25.34039  25.40310  25.79761
 Alpha virt. eigenvalues --   49.72627  49.79381  49.85323  49.95384 215.28712
          Condensed to atoms (all electrons):
               1          2          3          4          5          6
     1  C    4.268445   0.674893   0.376072  -0.027812   0.204408  -0.039888
     2  O    0.674893   7.763212  -0.057711   0.000245  -0.068084   0.003216
     3  O    0.376072  -0.057711   7.813329   0.302565  -0.064755   0.004410
     4  H   -0.027812   0.000245   0.302565   0.329831   0.004764  -0.000656
     5  O    0.204408  -0.068084  -0.064755   0.004764   8.264913   0.086675
     6  Cl  -0.039888   0.003216   0.004410  -0.000656   0.086675  16.803965
     7  O   -0.005574  -0.000026  -0.032517   0.078183  -0.002095   0.000222
     8  H    0.001697   0.000135   0.002679  -0.011512   0.011975  -0.001419
     9  H    0.000408   0.000006   0.001708  -0.005819  -0.000198   0.000026
               7          8          9
     1  C   -0.005574   0.001697   0.000408
     2  O   -0.000026   0.000135   0.000006
     3  O   -0.032517   0.002679   0.001708
     4  H    0.078183  -0.011512  -0.005819
     5  O   -0.002095   0.011975  -0.000198
     6  Cl   0.000222  -0.001419   0.000026
     7  O    7.843768   0.314003   0.320696
     8  H    0.314003   0.400596  -0.018872
     9  H    0.320696  -0.018872   0.407841
 Mulliken charges:
               1
     1  C    0.547352
     2  O   -0.315885
     3  O   -0.345781
     4  H    0.330209
     5  O   -0.437604
     6  Cl   0.143448
     7  O   -0.516660
     8  H    0.300718
     9  H    0.294202
 Sum of Mulliken charges =   0.00000
 Mulliken charges with hydrogens summed into heavy atoms:
               1
     1  C    0.547352
     2  O   -0.315885
     3  O   -0.015571
     5  O   -0.437604
     6  Cl   0.143448
     7  O    0.078259
 Electronic spatial extent (au):  <R**2>=            904.9716
 Charge=              0.0000 electrons
 Dipole moment (field-independent basis, Debye):
    X=              3.4664    Y=             -4.7940    Z=              0.0700  Tot=              5.9164
 Quadrupole moment (field-independent basis, Debye-Ang):
   XX=            -29.0899   YY=            -41.9635   ZZ=            -41.4987
   XY=             -5.4528   XZ=              0.2707   YZ=             -0.1336
 Traceless Quadrupole moment (field-independent basis, Debye-Ang):
   XX=              8.4274   YY=             -4.4462   ZZ=             -3.9813
   XY=             -5.4528   XZ=              0.2707   YZ=             -0.1336
 Octapole moment (field-independent basis, Debye-Ang**2):
  XXX=             45.2116  YYY=            -27.1937  ZZZ=              0.0323  XYY=             18.9627
  XXY=            -31.5331  XXZ=              0.9418  XZZ=              2.6593  YZZ=              1.3639
  YYZ=              0.1847  XYZ=             -0.4094
 Hexadecapole moment (field-independent basis, Debye-Ang**3):
 XXXX=           -448.4614 YYYY=           -351.6120 ZZZZ=            -37.7247 XXXY=            -76.2559
 XXXZ=              3.2984 YYYX=            -36.7538 YYYZ=             -0.3886 ZZZX=              0.1166
 ZZZY=             -0.0530 XXYY=           -130.9349 XXZZ=           -123.9130 YYZZ=            -65.2976
 XXYZ=             -1.4948 YYXZ=              0.7239 ZZXY=             -2.9127
 N-N= 2.964725393043D+02 E-N=-2.491659377010D+03  KE= 7.988180993480D+02
 1\1\GINC-INDIO\SP\RB3LYP\6-311G(d,p)\C1H3Cl1O4\SARARIOP\23-Jun-2017\0\
 \# B3LYP/6-311G** geom=check guess=read output=wfx\\Title Card Require
 d\\0,1\C,0,-1.0960762859,0.6454452459,0.1762827895\O,0,-1.6743772346,1
 .4904064173,0.8186028864\O,0,0.1591810214,0.6499939058,-0.2754130574\H
 ,0,0.4485603336,-0.1730017263,-0.8007559579\O,0,-1.6693135821,-0.61186
 0142,-0.2609270941\Cl,0,-3.4152975241,-0.879568397,0.231471337\O,0,0.6
 364246103,-1.5035195267,-1.5448217313\H,0,-0.1681688277,-2.0403503855,
 -1.526088904\H,0,1.3807842691,-1.9293593915,-1.9863251382\\Version=AM6
 4L-G09RevD.01\State=1-A\HF=-801.0845881\RMSD=1.069e-09\Dipole=0.839723
 1,-1.8132957,-1.1936945\Quadrupole=3.3027095,-2.5167437,-0.7859659,-4.
 140068,-4.1670864,1.5887115\PG=C01 [X(C1H3Cl1O4)]\\@

 Writing a WFNX file to "HClCO3-h2o.wfx"


 THE PROMISED LAND ALWAYS LIES ON THE OTHER SIDE OF A WILDERNESS.

                         -- HAVELOCK ELLIS
 Job cpu time:       0 days  0 hours  0 minutes 18.6 seconds.
 File lengths (MBytes):  RWF=      9 Int=      0 D2E=      0 Chk=      4 Scr=      1
 Normal termination of Gaussian 09 at Fri Jun 23 05:37:10 2017.
