 Entering Gaussian System, Link 0=g09
 Initial command:
 /usr/local/gaussian/gaussian09.d1/g09/l1.exe "/scratch/sarariop/HClSO4-h2o-A.com/Gau-27584.inp" -scrdir="/scratch/sarariop/HClSO4-h2o-A.com/"
 Default is to use a total of   8 processors:
                                8 via shared-memory
                                1 via Linda
 Entering Link 1 = /usr/local/gaussian/gaussian09.d1/g09/l1.exe PID=     27585.
  
 Copyright (c) 1988,1990,1992,1993,1995,1998,2003,2009,2013,
            Gaussian, Inc.  All Rights Reserved.
  
 This is part of the Gaussian(R) 09 program.  It is based on
 the Gaussian(R) 03 system (copyright 2003, Gaussian, Inc.),
 the Gaussian(R) 98 system (copyright 1998, Gaussian, Inc.),
 the Gaussian(R) 94 system (copyright 1995, Gaussian, Inc.),
 the Gaussian 92(TM) system (copyright 1992, Gaussian, Inc.),
 the Gaussian 90(TM) system (copyright 1990, Gaussian, Inc.),
 the Gaussian 88(TM) system (copyright 1988, Gaussian, Inc.),
 the Gaussian 86(TM) system (copyright 1986, Carnegie Mellon
 University), and the Gaussian 82(TM) system (copyright 1983,
 Carnegie Mellon University). Gaussian is a federally registered
 trademark of Gaussian, Inc.
  
 This software contains proprietary and confidential information,
 including trade secrets, belonging to Gaussian, Inc.
  
 This software is provided under written license and may be
 used, copied, transmitted, or stored only in accord with that
 written license.
  
 The following legend is applicable only to US Government
 contracts under FAR:
  
                    RESTRICTED RIGHTS LEGEND
  
 Use, reproduction and disclosure by the US Government is
 subject to restrictions as set forth in subparagraphs (a)
 and (c) of the Commercial Computer Software - Restricted
 Rights clause in FAR 52.227-19.
  
 Gaussian, Inc.
 340 Quinnipiac St., Bldg. 40, Wallingford CT 06492
  
  
 ---------------------------------------------------------------
 Warning -- This program may not be used in any manner that
 competes with the business of Gaussian, Inc. or will provide
 assistance to any competitor of Gaussian, Inc.  The licensee
 of this program is prohibited from giving any competitor of
 Gaussian, Inc. access to this program.  By using this program,
 the user acknowledges that Gaussian, Inc. is engaged in the
 business of creating and licensing software in the field of
 computational chemistry and represents and warrants to the
 licensee that it is not a competitor of Gaussian, Inc. and that
 it will not use this program in any manner prohibited above.
 ---------------------------------------------------------------
  

 Cite this work as:
 Gaussian 09, Revision D.01,
 M. J. Frisch, G. W. Trucks, H. B. Schlegel, G. E. Scuseria, 
 M. A. Robb, J. R. Cheeseman, G. Scalmani, V. Barone, B. Mennucci, 
 G. A. Petersson, H. Nakatsuji, M. Caricato, X. Li, H. P. Hratchian, 
 A. F. Izmaylov, J. Bloino, G. Zheng, J. L. Sonnenberg, M. Hada, 
 M. Ehara, K. Toyota, R. Fukuda, J. Hasegawa, M. Ishida, T. Nakajima, 
 Y. Honda, O. Kitao, H. Nakai, T. Vreven, J. A. Montgomery, Jr., 
 J. E. Peralta, F. Ogliaro, M. Bearpark, J. J. Heyd, E. Brothers, 
 K. N. Kudin, V. N. Staroverov, T. Keith, R. Kobayashi, J. Normand, 
 K. Raghavachari, A. Rendell, J. C. Burant, S. S. Iyengar, J. Tomasi, 
 M. Cossi, N. Rega, J. M. Millam, M. Klene, J. E. Knox, J. B. Cross, 
 V. Bakken, C. Adamo, J. Jaramillo, R. Gomperts, R. E. Stratmann, 
 O. Yazyev, A. J. Austin, R. Cammi, C. Pomelli, J. W. Ochterski, 
 R. L. Martin, K. Morokuma, V. G. Zakrzewski, G. A. Voth, 
 P. Salvador, J. J. Dannenberg, S. Dapprich, A. D. Daniels, 
 O. Farkas, J. B. Foresman, J. V. Ortiz, J. Cioslowski, 
 and D. J. Fox, Gaussian, Inc., Wallingford CT, 2013.
 
 ******************************************
 Gaussian 09:  AM64L-G09RevD.01 24-Apr-2013
                21-Jun-2017 
 ******************************************
 %chk=HClSO4-h2o-A.chk
 Default route:  MaxDisk=56GB
 -----------------------------------------
 # opt freq b3lyp/6-311g geom=connectivity
 -----------------------------------------
 1/14=-1,18=20,19=15,26=3,38=1,57=2/1,3;
 2/9=110,12=2,17=6,18=5,40=1/2;
 3/5=4,6=6,11=2,16=1,25=1,30=1,71=1,74=-5/1,2,3;
 4//1;
 5/5=2,38=5/2;
 6/7=2,8=2,9=2,10=2,28=1/1;
 7//1,2,3,16;
 1/14=-1,18=20,19=15,26=3/3(2);
 2/9=110/2;
 99//99;
 2/9=110/2;
 3/5=4,6=6,11=2,16=1,25=1,30=1,71=1,74=-5/1,2,3;
 4/5=5,16=3,69=1/1;
 5/5=2,38=5/2;
 7//1,2,3,16;
 1/14=-1,18=20,19=15,26=3/3(-5);
 2/9=110/2;
 6/7=2,8=2,9=2,10=2,19=2,28=1/1;
 99/9=1/99;
 -------------------
 Title Card Required
 -------------------
 Symbolic Z-matrix:
 Charge = -1 Multiplicity = 1
 S                    -0.85538  -0.92593   0. 
 Cl                   -3.75135  -0.9939   -0.14617 
 O                     0.13087   0.03712  -0.41321 
 O                    -2.25513  -0.18347  -0.51271 
 O                    -1.00291  -1.43457   1.3296 
 O                    -0.79977  -2.21682  -0.96649 
 O                    -0.46928  -0.55413  -2.32822 
 H                     0.49072  -0.55413  -2.32822 
 H                    -0.78973   0.3508   -2.32822 
 
 Add virtual bond connecting atoms O7         and O3         Dist= 3.95D+00.
 Add virtual bond connecting atoms O7         and O6         Dist= 4.11D+00.
 Add virtual bond connecting atoms H8         and O3         Dist= 3.85D+00.
 Add virtual bond connecting atoms H9         and O3         Dist= 4.06D+00.

 GradGradGradGradGradGradGradGradGradGradGradGradGradGradGradGradGradGrad
 Berny optimization.
 Initialization pass.
                           ----------------------------
                           !    Initial Parameters    !
                           ! (Angstroms and Degrees)  !
 --------------------------                            --------------------------
 ! Name  Definition              Value          Derivative Info.                !
 --------------------------------------------------------------------------------
 ! R1    R(1,3)                  1.4391         estimate D2E/DX2                !
 ! R2    R(1,4)                  1.6654         estimate D2E/DX2                !
 ! R3    R(1,5)                  1.4312         estimate D2E/DX2                !
 ! R4    R(1,6)                  1.6136         estimate D2E/DX2                !
 ! R5    R(2,4)                  1.7406         estimate D2E/DX2                !
 ! R6    R(3,7)                  2.0921         estimate D2E/DX2                !
 ! R7    R(3,8)                  2.0363         estimate D2E/DX2                !
 ! R8    R(3,9)                  2.1478         estimate D2E/DX2                !
 ! R9    R(6,7)                  2.1744         estimate D2E/DX2                !
 ! R10   R(7,8)                  0.96           estimate D2E/DX2                !
 ! R11   R(7,9)                  0.96           estimate D2E/DX2                !
 ! A1    A(3,1,4)              100.9108         estimate D2E/DX2                !
 ! A2    A(3,1,5)              125.1166         estimate D2E/DX2                !
 ! A3    A(3,1,6)              109.8636         estimate D2E/DX2                !
 ! A4    A(4,1,5)              110.9664         estimate D2E/DX2                !
 ! A5    A(4,1,6)              101.6089         estimate D2E/DX2                !
 ! A6    A(5,1,6)              106.0029         estimate D2E/DX2                !
 ! A7    A(1,3,7)               82.9409         estimate D2E/DX2                !
 ! A8    A(1,3,8)              101.3523         estimate D2E/DX2                !
 ! A9    A(1,3,9)               93.4399         estimate D2E/DX2                !
 ! A10   A(8,3,9)               43.9158         estimate D2E/DX2                !
 ! A11   A(1,4,2)              116.7493         estimate D2E/DX2                !
 ! A12   A(1,6,7)               76.6205         estimate D2E/DX2                !
 ! A13   A(3,7,6)               71.7278         estimate D2E/DX2                !
 ! A14   A(6,7,8)               98.7423         estimate D2E/DX2                !
 ! A15   A(6,7,9)              132.0722         estimate D2E/DX2                !
 ! A16   A(8,7,9)              109.5            estimate D2E/DX2                !
 ! D1    D(4,1,3,7)            -67.4529         estimate D2E/DX2                !
 ! D2    D(4,1,3,8)            -87.094          estimate D2E/DX2                !
 ! D3    D(4,1,3,9)            -43.4791         estimate D2E/DX2                !
 ! D4    D(5,1,3,7)            167.0223         estimate D2E/DX2                !
 ! D5    D(5,1,3,8)            147.3812         estimate D2E/DX2                !
 ! D6    D(5,1,3,9)           -169.0039         estimate D2E/DX2                !
 ! D7    D(6,1,3,7)             39.2579         estimate D2E/DX2                !
 ! D8    D(6,1,3,8)             19.6168         estimate D2E/DX2                !
 ! D9    D(6,1,3,9)             63.2316         estimate D2E/DX2                !
 ! D10   D(3,1,4,2)           -177.4343         estimate D2E/DX2                !
 ! D11   D(5,1,4,2)            -42.9081         estimate D2E/DX2                !
 ! D12   D(6,1,4,2)             69.4328         estimate D2E/DX2                !
 ! D13   D(3,1,6,7)            -38.3971         estimate D2E/DX2                !
 ! D14   D(4,1,6,7)             67.8437         estimate D2E/DX2                !
 ! D15   D(5,1,6,7)           -176.1203         estimate D2E/DX2                !
 ! D16   D(1,3,7,6)            -27.7171         estimate D2E/DX2                !
 ! D17   D(1,6,7,3)             25.0332         estimate D2E/DX2                !
 ! D18   D(1,6,7,8)             94.153          estimate D2E/DX2                !
 ! D19   D(1,6,7,9)            -32.2735         estimate D2E/DX2                !
 --------------------------------------------------------------------------------
 Trust Radius=3.00D-01 FncErr=1.00D-07 GrdErr=1.00D-06
 Number of steps in this run=     56 maximum allowed number of steps=    100.
 GradGradGradGradGradGradGradGradGradGradGradGradGradGradGradGradGradGrad

                          Input orientation:                          
 ---------------------------------------------------------------------
 Center     Atomic      Atomic             Coordinates (Angstroms)
 Number     Number       Type             X           Y           Z
 ---------------------------------------------------------------------
      1         16           0       -0.855379   -0.925926    0.000000
      2         17           0       -3.751354   -0.993898   -0.146166
      3          8           0        0.130868    0.037123   -0.413212
      4          8           0       -2.255125   -0.183475   -0.512714
      5          8           0       -1.002907   -1.434566    1.329598
      6          8           0       -0.799766   -2.216824   -0.966493
      7          8           0       -0.469275   -0.554134   -2.328223
      8          1           0        0.490725   -0.554134   -2.328223
      9          1           0       -0.789730    0.350802   -2.328223
 ---------------------------------------------------------------------
                    Distance matrix (angstroms):
                    1          2          3          4          5
     1  S    0.000000
     2  Cl   2.900458   0.000000
     3  O    1.439059   4.025663   0.000000
     4  O    1.665352   1.740645   2.398234   0.000000
     5  O    1.431192   3.150560   2.547293   2.554876   0.000000
     6  O    1.613573   3.298538   2.500495   2.541357   2.434179
     7  O    2.389127   3.965703   2.092133   2.573464   3.799944
     8  H    2.714930   4.790615   2.036258   3.312574   4.047931
     9  H    2.656118   3.916734   2.147827   2.393513   4.075860
                    6          7          8          9
     6  O    0.000000
     7  O    2.174413   0.000000
     8  H    2.506833   0.960000   0.000000
     9  H    2.906392   0.960000   1.567952   0.000000
 Stoichiometry    ClH2O5S(1-)
 Framework group  C1[X(ClH2O5S)]
 Deg. of freedom    21
 Full point group                 C1      NOp   1
 Largest Abelian subgroup         C1      NOp   1
 Largest concise Abelian subgroup C1      NOp   1
                         Standard orientation:                         
 ---------------------------------------------------------------------
 Center     Atomic      Atomic             Coordinates (Angstroms)
 Number     Number       Type             X           Y           Z
 ---------------------------------------------------------------------
      1         16           0        0.501148    0.575031   -0.072879
      2         17           0       -2.225254   -0.408933    0.032964
      3          8           0        1.637764    0.245422   -0.891629
      4          8           0       -0.627600   -0.504186   -0.651341
      5          8           0       -0.063696    1.882957    0.063470
      6          8           0        0.730879    0.030941    1.428723
      7          8           0        1.571024   -1.545110    0.188447
      8          1           0        2.487012   -1.257766    0.187980
      9          1           0        1.336974   -1.871047   -0.683669
 ---------------------------------------------------------------------
 Rotational constants (GHZ):      2.8933642      1.4863533      1.2395155
 Standard basis: 6-311G (5D, 7F)
 There are   113 symmetry adapted cartesian basis functions of A   symmetry.
 There are   113 symmetry adapted basis functions of A   symmetry.
   113 basis functions,   223 primitive gaussians,   113 cartesian basis functions
    38 alpha electrons       38 beta electrons
       nuclear repulsion energy       544.3133757367 Hartrees.



 Warning!  S  atom    1 may be hypervalent but has no d functions.



 NAtoms=    9 NActive=    9 NUniq=    9 SFac= 1.00D+00 NAtFMM=   60 NAOKFM=F Big=F
 Integral buffers will be    131072 words long.
 Raffenetti 2 integral format.
 Two-electron integral symmetry is turned on.
 One-electron integrals computed using PRISM.
 NBasis=   113 RedAO= T EigKep=  7.45D-03  NBF=   113
 NBsUse=   113 1.00D-06 EigRej= -1.00D+00 NBFU=   113
 ExpMin= 7.71D-02 ExpMax= 1.06D+05 ExpMxC= 3.62D+03 IAcc=2 IRadAn=         4 AccDes= 0.00D+00
 Harris functional with IExCor=  402 and IRadAn=       4 diagonalized for initial guess.
 HarFok:  IExCor=  402 AccDes= 0.00D+00 IRadAn=         4 IDoV= 1 UseB2=F ITyADJ=14
 ICtDFT=  3500011 ScaDFX=  1.000000  1.000000  1.000000  1.000000
 FoFCou: FMM=F IPFlag=           0 FMFlag=      100000 FMFlg1=           0
         NFxFlg=           0 DoJE=T BraDBF=F KetDBF=T FulRan=T
         wScrn=  0.000000 ICntrl=     500 IOpCl=  0 I1Cent=   200000004 NGrid=           0
         NMat0=    1 NMatS0=      1 NMatT0=    0 NMatD0=    1 NMtDS0=    0 NMtDT0=    0
 Petite list used in FoFCou.
 Keep R1 ints in memory in canonical form, NReq=21740701.
 Requested convergence on RMS density matrix=1.00D-08 within 128 cycles.
 Requested convergence on MAX density matrix=1.00D-06.
 Requested convergence on             energy=1.00D-06.
 No special actions if energy rises.
 Integral accuracy reduced to 1.0D-05 until final iterations.
 EnCoef did     2 forward-backward iterations
 EnCoef did     3 forward-backward iterations
 Initial convergence to 1.0D-05 achieved.  Increase integral accuracy.
 SCF Done:  E(RB3LYP) =  -1235.36001461     A.U. after   22 cycles
            NFock= 22  Conv=0.52D-08     -V/T= 2.0002

 **********************************************************************

            Population analysis using the SCF density.

 **********************************************************************

 Orbital symmetries:
       Occupied  (A) (A) (A) (A) (A) (A) (A) (A) (A) (A) (A) (A)
                 (A) (A) (A) (A) (A) (A) (A) (A) (A) (A) (A) (A)
                 (A) (A) (A) (A) (A) (A) (A) (A) (A) (A) (A) (A)
                 (A) (A)
       Virtual   (A) (A) (A) (A) (A) (A) (A) (A) (A) (A) (A) (A)
                 (A) (A) (A) (A) (A) (A) (A) (A) (A) (A) (A) (A)
                 (A) (A) (A) (A) (A) (A) (A) (A) (A) (A) (A) (A)
                 (A) (A) (A) (A) (A) (A) (A) (A) (A) (A) (A) (A)
                 (A) (A) (A) (A) (A) (A) (A) (A) (A) (A) (A) (A)
                 (A) (A) (A) (A) (A) (A) (A) (A) (A) (A) (A) (A)
                 (A) (A) (A)
 The electronic state is 1-A.
 Alpha  occ. eigenvalues -- -101.46214 -88.95186 -19.04787 -18.95387 -18.95304
 Alpha  occ. eigenvalues --  -18.92257 -18.87979  -9.37423  -8.03731  -7.14357
 Alpha  occ. eigenvalues --   -7.12667  -7.12616  -5.99913  -5.99729  -5.99412
 Alpha  occ. eigenvalues --   -1.04883  -0.91626  -0.90945  -0.84491  -0.76428
 Alpha  occ. eigenvalues --   -0.68338  -0.46575  -0.37894  -0.37225  -0.33388
 Alpha  occ. eigenvalues --   -0.32829  -0.28500  -0.26209  -0.22468  -0.19799
 Alpha  occ. eigenvalues --   -0.19133  -0.17552  -0.16158  -0.15368  -0.13693
 Alpha  occ. eigenvalues --   -0.08352  -0.07770  -0.03973
 Alpha virt. eigenvalues --    0.03519   0.18431   0.20538   0.25681   0.25919
 Alpha virt. eigenvalues --    0.27522   0.33208   0.34382   0.35997   0.39697
 Alpha virt. eigenvalues --    0.43341   0.43709   0.46872   0.56855   0.57738
 Alpha virt. eigenvalues --    0.61470   0.86328   0.87390   0.87841   0.91115
 Alpha virt. eigenvalues --    0.95244   0.96381   0.99193   1.04809   1.05886
 Alpha virt. eigenvalues --    1.07836   1.11068   1.12582   1.20128   1.21905
 Alpha virt. eigenvalues --    1.23367   1.27674   1.35924   1.46490   1.48005
 Alpha virt. eigenvalues --    1.52755   1.65796   1.70939   1.85570   1.95811
 Alpha virt. eigenvalues --    2.22625   2.23921   2.29863   2.35514   2.39457
 Alpha virt. eigenvalues --    4.87507   4.89898   4.91238   4.94378   4.95859
 Alpha virt. eigenvalues --    4.97639   4.98746   5.01301   5.03463   5.04838
 Alpha virt. eigenvalues --    5.10320   5.12655   5.17063   5.21553   5.22039
 Alpha virt. eigenvalues --    7.69197   9.53496  17.24271  17.28579  17.41986
 Alpha virt. eigenvalues --   25.51155  25.53919  25.82905  49.85526  49.93163
 Alpha virt. eigenvalues --   49.96052  49.98100  50.10013 188.80572 215.46588
          Condensed to atoms (all electrons):
               1          2          3          4          5          6
     1  S   14.462362  -0.051354  -0.005608  -0.117615   0.056756   0.314759
     2  Cl  -0.051354  16.895935   0.004236  -0.007373   0.007003   0.006345
     3  O   -0.005608   0.004236   8.993788  -0.060111  -0.067356  -0.093633
     4  O   -0.117615  -0.007373  -0.060111   8.921482  -0.064097  -0.073525
     5  O    0.056756   0.007003  -0.067356  -0.064097   8.784792  -0.107086
     6  O    0.314759   0.006345  -0.093633  -0.073525  -0.107086   8.665971
     7  O    0.006122   0.001490  -0.121553  -0.009083  -0.000631  -0.118143
     8  H   -0.010876  -0.000159   0.005902  -0.000146   0.000415   0.017922
     9  H   -0.007873  -0.000755   0.005978   0.007053   0.000689   0.011144
               7          8          9
     1  S    0.006122  -0.010876  -0.007873
     2  Cl   0.001490  -0.000159  -0.000755
     3  O   -0.121553   0.005902   0.005978
     4  O   -0.009083  -0.000146   0.007053
     5  O   -0.000631   0.000415   0.000689
     6  O   -0.118143   0.017922   0.011144
     7  O    8.513969   0.223874   0.201254
     8  H    0.223874   0.429289  -0.020247
     9  H    0.201254  -0.020247   0.464981
 Mulliken charges:
               1
     1  S    1.353327
     2  Cl   0.144634
     3  O   -0.661641
     4  O   -0.596585
     5  O   -0.610485
     6  O   -0.623754
     7  O   -0.697298
     8  H    0.354027
     9  H    0.337776
 Sum of Mulliken charges =  -1.00000
 Mulliken charges with hydrogens summed into heavy atoms:
               1
     1  S    1.353327
     2  Cl   0.144634
     3  O   -0.661641
     4  O   -0.596585
     5  O   -0.610485
     6  O   -0.623754
     7  O   -0.005495
 Electronic spatial extent (au):  <R**2>=            981.4642
 Charge=             -1.0000 electrons
 Dipole moment (field-independent basis, Debye):
    X=             -1.6627    Y=             -1.8116    Z=             -2.6790  Tot=              3.6364
 Quadrupole moment (field-independent basis, Debye-Ang):
   XX=            -58.4935   YY=            -67.0405   ZZ=            -65.6235
   XY=             -0.5297   XZ=             -1.8338   YZ=              2.4097
 Traceless Quadrupole moment (field-independent basis, Debye-Ang):
   XX=              5.2256   YY=             -3.3213   ZZ=             -1.9043
   XY=             -0.5297   XZ=             -1.8338   YZ=              2.4097
 Octapole moment (field-independent basis, Debye-Ang**2):
  XXX=              4.6624  YYY=            -16.9004  ZZZ=             -7.6780  XYY=              2.5649
  XXY=             -4.9657  XXZ=              7.1073  XZZ=             -6.4735  YZZ=             -2.1863
  YYZ=             -6.7391  XYZ=              5.7154
 Hexadecapole moment (field-independent basis, Debye-Ang**3):
 XXXX=           -644.3990 YYYY=           -384.9520 ZZZZ=           -196.4355 XXXY=            -24.2614
 XXXZ=             -0.0874 YYYX=              4.7604 YYYZ=             12.7377 ZZZX=             -3.4873
 ZZZY=              0.1491 XXYY=           -175.0027 XXZZ=           -157.3577 YYZZ=            -85.6215
 XXYZ=              6.0830 YYXZ=             -8.3098 ZZXY=             -5.2928
 N-N= 5.443133757367D+02 E-N=-4.035869177691D+03  KE= 1.235083304326D+03
 Calling FoFJK, ICntrl=      2127 FMM=F ISym2X=0 I1Cent= 0 IOpClX= 0 NMat=1 NMatS=1 NMatT=0.
 ***** Axes restored to original set *****
 -------------------------------------------------------------------
 Center     Atomic                   Forces (Hartrees/Bohr)
 Number     Number              X              Y              Z
 -------------------------------------------------------------------
      1       16           0.000030360   -0.154450783   -0.111896419
      2       17          -0.038567385   -0.016909444    0.006400795
      3        8           0.126021912    0.152223265    0.033391514
      4        8          -0.054029092    0.078439289   -0.024436606
      5        8          -0.020010254   -0.033256413    0.191574244
      6        8          -0.003368322   -0.049826101    0.017308002
      7        8          -0.017189328    0.007589521   -0.109869110
      8        1           0.005318759    0.000778395    0.002112202
      9        1           0.001793350    0.015412272   -0.004584622
 -------------------------------------------------------------------
 Cartesian Forces:  Max     0.191574244 RMS     0.072456300

 GradGradGradGradGradGradGradGradGradGradGradGradGradGradGradGradGradGrad
 Berny optimization.
 FormGI is forming the generalized inverse of G from B-inverse, IUseBI=4.
 Internal  Forces:  Max     0.191857868 RMS     0.044467129
 Search for a local minimum.
 Step number   1 out of a maximum of   56
 All quantities printed in internal units (Hartrees-Bohrs-Radians)
 Mixed Optimization -- RFO/linear search
 Second derivative matrix not updated -- first step.
 ITU=  0
     Eigenvalues ---    0.01754   0.02410   0.04179   0.04556   0.06790
     Eigenvalues ---    0.07495   0.08177   0.11140   0.12578   0.14659
     Eigenvalues ---    0.15617   0.17586   0.19742   0.25000   0.31411
     Eigenvalues ---    0.40406   0.45055   0.46699   0.51694   0.90085
     Eigenvalues ---    1.04853
 RFO step:  Lambda=-1.35341535D-01 EMin= 1.75445804D-02
 Linear search not attempted -- first point.
 Maximum step size (   0.300) exceeded in Quadratic search.
    -- Step size scaled by   0.571
 Iteration  1 RMS(Cart)=  0.05154097 RMS(Int)=  0.00160213
 Iteration  2 RMS(Cart)=  0.00124361 RMS(Int)=  0.00075720
 Iteration  3 RMS(Cart)=  0.00000235 RMS(Int)=  0.00075719
 Iteration  4 RMS(Cart)=  0.00000000 RMS(Int)=  0.00075719
 Variable       Old X    -DE/DX   Delta X   Delta X   Delta X     New X
                                 (Linear)    (Quad)   (Total)
    R1        2.71943   0.15910   0.00000   0.08935   0.08907   2.80850
    R2        3.14706   0.11082   0.00000   0.11739   0.11739   3.26445
    R3        2.70456   0.19186   0.00000   0.09260   0.09260   2.79716
    R4        3.04921   0.01832   0.00000   0.02366   0.02321   3.07242
    R5        3.28934   0.04236   0.00000   0.05385   0.05385   3.34320
    R6        3.95356   0.05439   0.00000   0.13068   0.13075   4.08431
    R7        3.84797   0.00424   0.00000   0.03071   0.03075   3.87872
    R8        4.05880   0.01743   0.00000   0.05372   0.05326   4.11207
    R9        4.10904   0.07053   0.00000   0.15871   0.15926   4.26831
   R10        1.81414   0.00633   0.00000   0.00488   0.00511   1.81925
   R11        1.81414   0.01215   0.00000   0.00996   0.01043   1.82456
    A1        1.76123  -0.01332   0.00000  -0.02769  -0.02854   1.73269
    A2        2.18370  -0.01333   0.00000  -0.04430  -0.04525   2.13845
    A3        1.91748  -0.01161   0.00000   0.01546   0.01530   1.93278
    A4        1.93673  -0.00242   0.00000  -0.00864  -0.01119   1.92554
    A5        1.77341   0.01390   0.00000   0.02799   0.02805   1.80146
    A6        1.85010   0.03011   0.00000   0.04769   0.04857   1.89867
    A7        1.44759  -0.01175   0.00000   0.00526   0.00521   1.45281
    A8        1.76893  -0.01642   0.00000  -0.01187  -0.01233   1.75660
    A9        1.63083  -0.00920   0.00000   0.01190   0.01165   1.64249
   A10        0.76647  -0.00091   0.00000  -0.01238  -0.01267   0.75381
   A11        2.03766   0.01418   0.00000   0.02103   0.02103   2.05869
   A12        1.33728   0.01217   0.00000   0.01139   0.01094   1.34822
   A13        1.25189   0.01506   0.00000  -0.01644  -0.01603   1.23585
   A14        1.72338  -0.00442   0.00000  -0.03242  -0.03386   1.68952
   A15        2.30509  -0.00845   0.00000  -0.02818  -0.02874   2.27635
   A16        1.91114  -0.00909   0.00000  -0.02339  -0.02521   1.88593
    D1       -1.17727  -0.01252   0.00000  -0.03081  -0.03041  -1.20768
    D2       -1.52008  -0.01305   0.00000  -0.03296  -0.03208  -1.55215
    D3       -0.75885  -0.01405   0.00000  -0.04151  -0.04122  -0.80007
    D4        2.91509   0.01413   0.00000   0.04200   0.04094   2.95603
    D5        2.57229   0.01360   0.00000   0.03985   0.03927   2.61156
    D6       -2.94968   0.01260   0.00000   0.03131   0.03013  -2.91955
    D7        0.68518  -0.00652   0.00000  -0.00708  -0.00735   0.67783
    D8        0.34238  -0.00706   0.00000  -0.00922  -0.00902   0.33336
    D9        1.10360  -0.00806   0.00000  -0.01777  -0.01816   1.08544
   D10       -3.09681   0.00457   0.00000   0.03009   0.02964  -3.06718
   D11       -0.74889  -0.02336   0.00000  -0.05107  -0.05111  -0.80000
   D12        1.21183   0.01686   0.00000   0.01379   0.01428   1.22611
   D13       -0.67016   0.01247   0.00000   0.01291   0.01287  -0.65729
   D14        1.18410   0.00004   0.00000  -0.00068  -0.00137   1.18272
   D15       -3.07388   0.01430   0.00000   0.01910   0.01855  -3.05532
   D16       -0.48375   0.01046   0.00000   0.02085   0.02036  -0.46340
   D17        0.43691   0.01318   0.00000  -0.00777  -0.00785   0.42906
   D18        1.64328  -0.00839   0.00000  -0.05226  -0.05110   1.59218
   D19       -0.56328   0.01883   0.00000   0.04930   0.04757  -0.51571
         Item               Value     Threshold  Converged?
 Maximum Force            0.191858     0.000450     NO 
 RMS     Force            0.044467     0.000300     NO 
 Maximum Displacement     0.175328     0.001800     NO 
 RMS     Displacement     0.051278     0.001200     NO 
 Predicted change in Energy=-6.252741D-02
 GradGradGradGradGradGradGradGradGradGradGradGradGradGradGradGradGradGrad

                          Input orientation:                          
 ---------------------------------------------------------------------
 Center     Atomic      Atomic             Coordinates (Angstroms)
 Number     Number       Type             X           Y           Z
 ---------------------------------------------------------------------
      1         16           0       -0.850357   -0.971816    0.004960
      2         17           0       -3.844134   -0.966367   -0.123526
      3          8           0        0.137303    0.059506   -0.406946
      4          8           0       -2.302644   -0.183215   -0.498159
      5          8           0       -0.976946   -1.438702    1.403875
      6          8           0       -0.772419   -2.267303   -0.974346
      7          8           0       -0.444772   -0.545180   -2.398643
      8          1           0        0.515794   -0.527408   -2.337015
      9          1           0       -0.763770    0.365455   -2.363855
 ---------------------------------------------------------------------
                    Distance matrix (angstroms):
                    1          2          3          4          5
     1  S    0.000000
     2  Cl   2.996538   0.000000
     3  O    1.486192   4.121236   0.000000
     4  O    1.727472   1.769143   2.453686   0.000000
     5  O    1.480193   3.282807   2.601011   2.636562   0.000000
     6  O    1.625854   3.442639   2.561948   2.629024   2.526727
     7  O    2.474637   4.112082   2.161322   2.682265   3.942175
     8  H    2.747492   4.909296   2.052532   3.382817   4.129526
     9  H    2.721595   4.035029   2.176012   2.479917   4.182848
                    6          7          8          9
     6  O    0.000000
     7  O    2.258691   0.000000
     8  H    2.558044   0.962705   0.000000
     9  H    2.976949   0.965518   1.560516   0.000000
 Stoichiometry    ClH2O5S(1-)
 Framework group  C1[X(ClH2O5S)]
 Deg. of freedom    21
 Full point group                 C1      NOp   1
 Largest Abelian subgroup         C1      NOp   1
 Largest concise Abelian subgroup C1      NOp   1
                         Standard orientation:                         
 ---------------------------------------------------------------------
 Center     Atomic      Atomic             Coordinates (Angstroms)
 Number     Number       Type             X           Y           Z
 ---------------------------------------------------------------------
      1         16           0        0.518813    0.587525   -0.047960
      2         17           0       -2.301602   -0.420674    0.041663
      3          8           0        1.645235    0.230962   -0.949516
      4          8           0       -0.672593   -0.513211   -0.642175
      5          8           0       -0.038076    1.956938    0.026561
      6          8           0        0.798432    0.053145    1.461891
      7          8           0        1.632057   -1.610597    0.181768
      8          1           0        2.532263   -1.273528    0.128714
      9          1           0        1.373532   -1.913305   -0.697867
 ---------------------------------------------------------------------
 Rotational constants (GHZ):      2.7103245      1.3962968      1.1599494
 Standard basis: 6-311G (5D, 7F)
 There are   113 symmetry adapted cartesian basis functions of A   symmetry.
 There are   113 symmetry adapted basis functions of A   symmetry.
   113 basis functions,   223 primitive gaussians,   113 cartesian basis functions
    38 alpha electrons       38 beta electrons
       nuclear repulsion energy       528.5971281747 Hartrees.



 Warning!  S  atom    1 may be hypervalent but has no d functions.



 NAtoms=    9 NActive=    9 NUniq=    9 SFac= 1.00D+00 NAtFMM=   60 NAOKFM=F Big=F
 Integral buffers will be    131072 words long.
 Raffenetti 2 integral format.
 Two-electron integral symmetry is turned on.
 One-electron integrals computed using PRISM.
 NBasis=   113 RedAO= T EigKep=  8.50D-03  NBF=   113
 NBsUse=   113 1.00D-06 EigRej= -1.00D+00 NBFU=   113
 Initial guess from the checkpoint file:  "HClSO4-h2o-A.chk"
 B after Tr=     0.000000    0.000000    0.000000
         Rot=    0.999976    0.003723   -0.005502    0.001951 Ang=   0.79 deg.
 ExpMin= 7.71D-02 ExpMax= 1.06D+05 ExpMxC= 3.62D+03 IAcc=2 IRadAn=         4 AccDes= 0.00D+00
 Harris functional with IExCor=  402 and IRadAn=       4 diagonalized for initial guess.
 HarFok:  IExCor=  402 AccDes= 0.00D+00 IRadAn=         4 IDoV= 1 UseB2=F ITyADJ=14
 ICtDFT=  3500011 ScaDFX=  1.000000  1.000000  1.000000  1.000000
 FoFCou: FMM=F IPFlag=           0 FMFlag=      100000 FMFlg1=           0
         NFxFlg=           0 DoJE=T BraDBF=F KetDBF=T FulRan=T
         wScrn=  0.000000 ICntrl=     500 IOpCl=  0 I1Cent=   200000004 NGrid=           0
         NMat0=    1 NMatS0=      1 NMatT0=    0 NMatD0=    1 NMtDS0=    0 NMtDT0=    0
 Petite list used in FoFCou.
 Keep R1 ints in memory in canonical form, NReq=21740701.
 Requested convergence on RMS density matrix=1.00D-08 within 128 cycles.
 Requested convergence on MAX density matrix=1.00D-06.
 Requested convergence on             energy=1.00D-06.
 No special actions if energy rises.
 Integral accuracy reduced to 1.0D-05 until final iterations.
 Initial convergence to 1.0D-05 achieved.  Increase integral accuracy.
 SCF Done:  E(RB3LYP) =  -1235.42491619     A.U. after   17 cycles
            NFock= 17  Conv=0.38D-08     -V/T= 2.0008
 Calling FoFJK, ICntrl=      2127 FMM=F ISym2X=0 I1Cent= 0 IOpClX= 0 NMat=1 NMatS=1 NMatT=0.
 ***** Axes restored to original set *****
 -------------------------------------------------------------------
 Center     Atomic                   Forces (Hartrees/Bohr)
 Number     Number              X              Y              Z
 -------------------------------------------------------------------
      1       16           0.007891626   -0.121313994   -0.078121180
      2       17          -0.025223561   -0.012313430    0.005233451
      3        8           0.079884993    0.106945569    0.032297201
      4        8          -0.036888031    0.057426305   -0.017232841
      5        8          -0.012770981   -0.015496941    0.123766673
      6        8          -0.004235302   -0.032598084    0.020420538
      7        8          -0.013116253    0.009954332   -0.088562762
      8        1           0.003067011   -0.000623834    0.003694736
      9        1           0.001390498    0.008020077   -0.001495816
 -------------------------------------------------------------------
 Cartesian Forces:  Max     0.123766673 RMS     0.051258428

 GradGradGradGradGradGradGradGradGradGradGradGradGradGradGradGradGradGrad
 Berny optimization.
 Using GEDIIS/GDIIS optimizer.
 FormGI is forming the generalized inverse of G from B-inverse, IUseBI=4.
 Internal  Forces:  Max     0.122951913 RMS     0.029613300
 Search for a local minimum.
 Step number   2 out of a maximum of   56
 All quantities printed in internal units (Hartrees-Bohrs-Radians)
 Mixed Optimization -- RFO/linear search
 Update second derivatives using D2CorX and points    1    2
 DE= -6.49D-02 DEPred=-6.25D-02 R= 1.04D+00
 TightC=F SS=  1.41D+00  RLast= 3.29D-01 DXNew= 5.0454D-01 9.8669D-01
 Trust test= 1.04D+00 RLast= 3.29D-01 DXMaxT set to 5.05D-01
 ITU=  1  0
 Use linear search instead of GDIIS.
 Linear search step of   0.602 exceeds DXMaxT=   0.505 but not scaled.
 Quartic linear search produced a step of  2.00000.
 Iteration  1 RMS(Cart)=  0.09132364 RMS(Int)=  0.01930351
 Iteration  2 RMS(Cart)=  0.01387871 RMS(Int)=  0.00433180
 Iteration  3 RMS(Cart)=  0.00011139 RMS(Int)=  0.00432910
 Iteration  4 RMS(Cart)=  0.00000084 RMS(Int)=  0.00432910
 Variable       Old X    -DE/DX   Delta X   Delta X   Delta X     New X
                                 (Linear)    (Quad)   (Total)
    R1        2.80850   0.10494   0.17814   0.00000   0.17678   2.98527
    R2        3.26445   0.07632   0.23478   0.00000   0.23478   3.49923
    R3        2.79716   0.12295   0.18520   0.00000   0.18520   2.98236
    R4        3.07242   0.00640   0.04641   0.00000   0.04426   3.11668
    R5        3.34320   0.02853   0.10771   0.00000   0.10771   3.45091
    R6        4.08431   0.04181   0.26150   0.00000   0.26080   4.34511
    R7        3.87872   0.00362   0.06151   0.00000   0.06209   3.94081
    R8        4.11207   0.01181   0.10652   0.00000   0.10472   4.21679
    R9        4.26831   0.05249   0.31853   0.00000   0.32114   4.58944
   R10        1.81925   0.00439   0.01022   0.00000   0.01173   1.83098
   R11        1.82456   0.00680   0.02085   0.00000   0.02322   1.84778
    A1        1.73269  -0.01127  -0.05707   0.00000  -0.06126   1.67143
    A2        2.13845  -0.00947  -0.09049   0.00000  -0.09552   2.04293
    A3        1.93278  -0.00437   0.03061   0.00000   0.02942   1.96220
    A4        1.92554  -0.00333  -0.02238   0.00000  -0.03766   1.88788
    A5        1.80146   0.00963   0.05609   0.00000   0.05606   1.85751
    A6        1.89867   0.01905   0.09714   0.00000   0.10160   2.00027
    A7        1.45281  -0.00836   0.01043   0.00000   0.01014   1.46294
    A8        1.75660  -0.01330  -0.02466   0.00000  -0.02707   1.72953
    A9        1.64249  -0.00701   0.02330   0.00000   0.02186   1.66435
   A10        0.75381  -0.00095  -0.02534   0.00000  -0.02709   0.72671
   A11        2.05869   0.00265   0.04205   0.00000   0.04205   2.10074
   A12        1.34822   0.00813   0.02188   0.00000   0.01922   1.36744
   A13        1.23585   0.00814  -0.03207   0.00000  -0.02958   1.20627
   A14        1.68952  -0.00668  -0.06772   0.00000  -0.07500   1.61452
   A15        2.27635  -0.00905  -0.05749   0.00000  -0.05916   2.21719
   A16        1.88593  -0.00595  -0.05042   0.00000  -0.06028   1.82565
    D1       -1.20768  -0.00866  -0.06081   0.00000  -0.05804  -1.26572
    D2       -1.55215  -0.00941  -0.06415   0.00000  -0.05842  -1.61057
    D3       -0.80007  -0.01050  -0.08244   0.00000  -0.08051  -0.88058
    D4        2.95603   0.01079   0.08188   0.00000   0.07536   3.03139
    D5        2.61156   0.01003   0.07854   0.00000   0.07498   2.68654
    D6       -2.91955   0.00894   0.06026   0.00000   0.05289  -2.86665
    D7        0.67783  -0.00434  -0.01469   0.00000  -0.01607   0.66176
    D8        0.33336  -0.00510  -0.01803   0.00000  -0.01645   0.31691
    D9        1.08544  -0.00619  -0.03632   0.00000  -0.03854   1.04690
   D10       -3.06718   0.00426   0.05927   0.00000   0.05558  -3.01159
   D11       -0.80000  -0.01571  -0.10222   0.00000  -0.10070  -0.90070
   D12        1.22611   0.00990   0.02855   0.00000   0.03072   1.25683
   D13       -0.65729   0.00794   0.02574   0.00000   0.02551  -0.63178
   D14        1.18272  -0.00184  -0.00275   0.00000  -0.00650   1.17623
   D15       -3.05532   0.00755   0.03711   0.00000   0.03420  -3.02112
   D16       -0.46340   0.00839   0.04071   0.00000   0.03779  -0.42561
   D17        0.42906   0.00717  -0.01570   0.00000  -0.01596   0.41309
   D18        1.59218  -0.00853  -0.10220   0.00000  -0.09529   1.49689
   D19       -0.51571   0.01312   0.09514   0.00000   0.08516  -0.43055
         Item               Value     Threshold  Converged?
 Maximum Force            0.122952     0.000450     NO 
 RMS     Force            0.029613     0.000300     NO 
 Maximum Displacement     0.338480     0.001800     NO 
 RMS     Displacement     0.100779     0.001200     NO 
 Predicted change in Energy=-5.918304D-02
 GradGradGradGradGradGradGradGradGradGradGradGradGradGradGradGradGradGrad

                          Input orientation:                          
 ---------------------------------------------------------------------
 Center     Atomic      Atomic             Coordinates (Angstroms)
 Number     Number       Type             X           Y           Z
 ---------------------------------------------------------------------
      1         16           0       -0.837702   -1.071148    0.012047
      2         17           0       -4.023250   -0.908042   -0.076667
      3          8           0        0.142611    0.100266   -0.390881
      4          8           0       -2.391984   -0.186288   -0.467606
      5          8           0       -0.930978   -1.433668    1.545206
      6          8           0       -0.711617   -2.371439   -0.994659
      7          8           0       -0.393395   -0.523525   -2.538091
      8          1           0        0.556273   -0.475921   -2.351936
      9          1           0       -0.711904    0.394735   -2.431067
 ---------------------------------------------------------------------
                    Distance matrix (angstroms):
                    1          2          3          4          5
     1  S    0.000000
     2  Cl   3.190954   0.000000
     3  O    1.579739   4.297652   0.000000
     4  O    1.851712   1.826141   2.551896   0.000000
     5  O    1.578194   3.531133   2.693322   2.782429   0.000000
     6  O    1.649276   3.735124   2.683948   2.806475   2.716330
     7  O    2.645847   4.402534   2.299332   2.897412   4.217899
     8  H    2.808181   5.131823   2.085388   3.510955   4.279826
     9  H    2.851920   4.266783   2.231427   2.648667   4.381986
                    6          7          8          9
     6  O    0.000000
     7  O    2.428629   0.000000
     8  H    2.653816   0.968911   0.000000
     9  H    3.116887   0.977805   1.540317   0.000000
 Stoichiometry    ClH2O5S(1-)
 Framework group  C1[X(ClH2O5S)]
 Deg. of freedom    21
 Full point group                 C1      NOp   1
 Largest Abelian subgroup         C1      NOp   1
 Largest concise Abelian subgroup C1      NOp   1
                         Standard orientation:                         
 ---------------------------------------------------------------------
 Center     Atomic      Atomic             Coordinates (Angstroms)
 Number     Number       Type             X           Y           Z
 ---------------------------------------------------------------------
      1         16           0        0.557858    0.615128    0.010112
      2         17           0       -2.451444   -0.444981    0.059675
      3          8           0        1.645642    0.209003   -1.061039
      4          8           0       -0.758410   -0.524662   -0.620088
      5          8           0        0.002939    2.091131   -0.054509
      6          8           0        0.941568    0.091472    1.526246
      7          8           0        1.755302   -1.739837    0.154248
      8          1           0        2.607601   -1.304349    0.003500
      9          1           0        1.444897   -1.989865   -0.738634
 ---------------------------------------------------------------------
 Rotational constants (GHZ):      2.4007875      1.2401168      1.0249948
 Standard basis: 6-311G (5D, 7F)
 There are   113 symmetry adapted cartesian basis functions of A   symmetry.
 There are   113 symmetry adapted basis functions of A   symmetry.
   113 basis functions,   223 primitive gaussians,   113 cartesian basis functions
    38 alpha electrons       38 beta electrons
       nuclear repulsion energy       500.3968504326 Hartrees.



 Warning!  S  atom    1 may be hypervalent but has no d functions.



 NAtoms=    9 NActive=    9 NUniq=    9 SFac= 1.00D+00 NAtFMM=   60 NAOKFM=F Big=F
 Integral buffers will be    131072 words long.
 Raffenetti 2 integral format.
 Two-electron integral symmetry is turned on.
 One-electron integrals computed using PRISM.
 NBasis=   113 RedAO= T EigKep=  1.11D-02  NBF=   113
 NBsUse=   113 1.00D-06 EigRej= -1.00D+00 NBFU=   113
 Initial guess from the checkpoint file:  "HClSO4-h2o-A.chk"
 B after Tr=     0.000000    0.000000    0.000000
         Rot=    0.999923    0.005171   -0.010918    0.002941 Ang=   1.42 deg.
 ExpMin= 7.71D-02 ExpMax= 1.06D+05 ExpMxC= 3.62D+03 IAcc=2 IRadAn=         4 AccDes= 0.00D+00
 Harris functional with IExCor=  402 and IRadAn=       4 diagonalized for initial guess.
 HarFok:  IExCor=  402 AccDes= 0.00D+00 IRadAn=         4 IDoV= 1 UseB2=F ITyADJ=14
 ICtDFT=  3500011 ScaDFX=  1.000000  1.000000  1.000000  1.000000
 FoFCou: FMM=F IPFlag=           0 FMFlag=      100000 FMFlg1=           0
         NFxFlg=           0 DoJE=T BraDBF=F KetDBF=T FulRan=T
         wScrn=  0.000000 ICntrl=     500 IOpCl=  0 I1Cent=   200000004 NGrid=           0
         NMat0=    1 NMatS0=      1 NMatT0=    0 NMatD0=    1 NMtDS0=    0 NMtDT0=    0
 Petite list used in FoFCou.
 Keep R1 ints in memory in canonical form, NReq=21740701.
 Requested convergence on RMS density matrix=1.00D-08 within 128 cycles.
 Requested convergence on MAX density matrix=1.00D-06.
 Requested convergence on             energy=1.00D-06.
 No special actions if energy rises.
 Integral accuracy reduced to 1.0D-05 until final iterations.
 Initial convergence to 1.0D-05 achieved.  Increase integral accuracy.
 SCF Done:  E(RB3LYP) =  -1235.49550560     A.U. after   17 cycles
            NFock= 17  Conv=0.58D-08     -V/T= 2.0015
 Calling FoFJK, ICntrl=      2127 FMM=F ISym2X=0 I1Cent= 0 IOpClX= 0 NMat=1 NMatS=1 NMatT=0.
 ***** Axes restored to original set *****
 -------------------------------------------------------------------
 Center     Atomic                   Forces (Hartrees/Bohr)
 Number     Number              X              Y              Z
 -------------------------------------------------------------------
      1       16           0.015104435   -0.057958733   -0.026966897
      2       17          -0.004233627   -0.005123333    0.002229292
      3        8           0.022295173    0.039655036    0.026308991
      4        8          -0.016140052    0.025231882   -0.007173859
      5        8          -0.005315875   -0.002014373    0.030722988
      6        8          -0.005474424   -0.008623067    0.025482740
      7        8          -0.004775248    0.018712047   -0.056372483
      8        1          -0.000877060   -0.004767808    0.004860373
      9        1          -0.000583323   -0.005111650    0.000908856
 -------------------------------------------------------------------
 Cartesian Forces:  Max     0.057958733 RMS     0.022301986

 GradGradGradGradGradGradGradGradGradGradGradGradGradGradGradGradGradGrad
 Berny optimization.
 Using GEDIIS/GDIIS optimizer.
 FormGI is forming the generalized inverse of G from B-inverse, IUseBI=4.
 Internal  Forces:  Max     0.031444751 RMS     0.010456809
 Search for a local minimum.
 Step number   3 out of a maximum of   56
 All quantities printed in internal units (Hartrees-Bohrs-Radians)
 Mixed Optimization -- RFO/linear search
 Update second derivatives using D2CorX and points    2    3
 ITU=  0  1  0
 Use linear search instead of GDIIS.
 Linear search step of   0.609 exceeds DXMaxT=   0.505 but not scaled.
 Quartic linear search produced a step of  1.00357.
 Iteration  1 RMS(Cart)=  0.08903003 RMS(Int)=  0.02007316
 Iteration  2 RMS(Cart)=  0.01424485 RMS(Int)=  0.00525833
 Iteration  3 RMS(Cart)=  0.00011518 RMS(Int)=  0.00525585
 Iteration  4 RMS(Cart)=  0.00000108 RMS(Int)=  0.00525585
 Iteration  5 RMS(Cart)=  0.00000001 RMS(Int)=  0.00525585
 Variable       Old X    -DE/DX   Delta X   Delta X   Delta X     New X
                                 (Linear)    (Quad)   (Total)
    R1        2.98527   0.03144   0.17741   0.00000   0.17601   3.16129
    R2        3.49923   0.02799   0.23562   0.00000   0.23562   3.73485
    R3        2.98236   0.03062   0.18586   0.00000   0.18586   3.16821
    R4        3.11668  -0.01045   0.04442   0.00000   0.04227   3.15895
    R5        3.45091   0.00629   0.10809   0.00000   0.10809   3.55900
    R6        4.34511   0.02383   0.26173   0.00000   0.25973   4.60484
    R7        3.94081   0.00215   0.06231   0.00000   0.06349   4.00430
    R8        4.21679   0.00539   0.10509   0.00000   0.10368   4.32047
    R9        4.58944   0.02794   0.32228   0.00000   0.32488   4.91432
   R10        1.83098   0.00085   0.01177   0.00000   0.01398   1.84496
   R11        1.84778  -0.00340   0.02330   0.00000   0.02596   1.87374
    A1        1.67143  -0.00730  -0.06148   0.00000  -0.06558   1.60585
    A2        2.04293  -0.00127  -0.09586   0.00000  -0.10182   1.94112
    A3        1.96220   0.00328   0.02953   0.00000   0.02776   1.98996
    A4        1.88788  -0.00213  -0.03779   0.00000  -0.05719   1.83069
    A5        1.85751   0.00372   0.05626   0.00000   0.05568   1.91319
    A6        2.00027   0.00217   0.10196   0.00000   0.10684   2.10711
    A7        1.46294  -0.00271   0.01017   0.00000   0.00984   1.47278
    A8        1.72953  -0.00792  -0.02717   0.00000  -0.02976   1.69977
    A9        1.66435  -0.00390   0.02194   0.00000   0.02007   1.68442
   A10        0.72671  -0.00108  -0.02719   0.00000  -0.02936   0.69735
   A11        2.10074  -0.01061   0.04220   0.00000   0.04220   2.14294
   A12        1.36744   0.00374   0.01929   0.00000   0.01609   1.38353
   A13        1.20627  -0.00185  -0.02968   0.00000  -0.02659   1.17969
   A14        1.61452  -0.01068  -0.07527   0.00000  -0.08292   1.53160
   A15        2.21719  -0.01115  -0.05937   0.00000  -0.05974   2.15745
   A16        1.82565   0.00076  -0.06049   0.00000  -0.07115   1.75450
    D1       -1.26572  -0.00265  -0.05825   0.00000  -0.05446  -1.32018
    D2       -1.61057  -0.00366  -0.05863   0.00000  -0.05073  -1.66130
    D3       -0.88058  -0.00498  -0.08080   0.00000  -0.07815  -0.95872
    D4        3.03139   0.00467   0.07563   0.00000   0.06717   3.09856
    D5        2.68654   0.00367   0.07525   0.00000   0.07089   2.75744
    D6       -2.86665   0.00234   0.05308   0.00000   0.04348  -2.82317
    D7        0.66176  -0.00114  -0.01613   0.00000  -0.01765   0.64411
    D8        0.31691  -0.00215  -0.01651   0.00000  -0.01393   0.30298
    D9        1.04690  -0.00347  -0.03868   0.00000  -0.04134   1.00556
   D10       -3.01159   0.00184   0.05578   0.00000   0.04951  -2.96209
   D11       -0.90070  -0.00346  -0.10106   0.00000  -0.09642  -0.99712
   D12        1.25683   0.00012   0.03083   0.00000   0.03247   1.28930
   D13       -0.63178   0.00230   0.02560   0.00000   0.02535  -0.60643
   D14        1.17623  -0.00297  -0.00652   0.00000  -0.01096   1.16527
   D15       -3.02112  -0.00176   0.03432   0.00000   0.03171  -2.98941
   D16       -0.42561   0.00524   0.03792   0.00000   0.03433  -0.39129
   D17        0.41309   0.00055  -0.01602   0.00000  -0.01616   0.39693
   D18        1.49689  -0.00674  -0.09563   0.00000  -0.08785   1.40904
   D19       -0.43055   0.00470   0.08546   0.00000   0.07412  -0.35643
         Item               Value     Threshold  Converged?
 Maximum Force            0.031445     0.000450     NO 
 RMS     Force            0.010457     0.000300     NO 
 Maximum Displacement     0.320616     0.001800     NO 
 RMS     Displacement     0.098605     0.001200     NO 
 Predicted change in Energy=-6.083112D-03
 GradGradGradGradGradGradGradGradGradGradGradGradGradGradGradGradGradGrad

                          Input orientation:                          
 ---------------------------------------------------------------------
 Center     Atomic      Atomic             Coordinates (Angstroms)
 Number     Number       Type             X           Y           Z
 ---------------------------------------------------------------------
      1         16           0       -0.820865   -1.179755    0.015750
      2         17           0       -4.192913   -0.846238   -0.027353
      3          8           0        0.138643    0.135098   -0.370305
      4          8           0       -2.473653   -0.193887   -0.434244
      5          8           0       -0.895008   -1.410556    1.674677
      6          8           0       -0.642897   -2.479452   -1.020351
      7          8           0       -0.339225   -0.496217   -2.674858
      8          1           0        0.583756   -0.428317   -2.363927
      9          1           0       -0.659783    0.424293   -2.493043
 ---------------------------------------------------------------------
                    Distance matrix (angstroms):
                    1          2          3          4          5
     1  S    0.000000
     2  Cl   3.388775   0.000000
     3  O    1.672882   4.454549   0.000000
     4  O    1.976395   1.883342   2.633706   0.000000
     5  O    1.676546   3.753869   2.763953   2.901715   0.000000
     6  O    1.671643   4.031879   2.805216   2.986469   2.910202
     7  O    2.817548   4.688572   2.436777   3.109266   4.479215
     8  H    2.863648   5.333929   2.118984   3.623035   4.411560
     9  H    2.982107   4.491868   2.286293   2.812637   4.559813
                    6          7          8          9
     6  O    0.000000
     7  O    2.600545   0.000000
     8  H    2.741720   0.976311   0.000000
     9  H    3.255894   0.991540   1.513276   0.000000
 Stoichiometry    ClH2O5S(1-)
 Framework group  C1[X(ClH2O5S)]
 Deg. of freedom    21
 Full point group                 C1      NOp   1
 Largest Abelian subgroup         C1      NOp   1
 Largest concise Abelian subgroup C1      NOp   1
                         Standard orientation:                         
 ---------------------------------------------------------------------
 Center     Atomic      Atomic             Coordinates (Angstroms)
 Number     Number       Type             X           Y           Z
 ---------------------------------------------------------------------
      1         16           0        0.602517    0.646310    0.076701
      2         17           0       -2.596587   -0.471511    0.079843
      3          8           0        1.627796    0.195845   -1.166044
      4          8           0       -0.838375   -0.529211   -0.592717
      5          8           0        0.026044    2.204660   -0.146980
      6          8           0        1.094829    0.126295    1.587199
      7          8           0        1.880107   -1.864711    0.110016
      8          1           0        2.663572   -1.331555   -0.124744
      9          1           0        1.514920   -2.056750   -0.791600
 ---------------------------------------------------------------------
 Rotational constants (GHZ):      2.1524354      1.1097845      0.9159418
 Standard basis: 6-311G (5D, 7F)
 There are   113 symmetry adapted cartesian basis functions of A   symmetry.
 There are   113 symmetry adapted basis functions of A   symmetry.
   113 basis functions,   223 primitive gaussians,   113 cartesian basis functions
    38 alpha electrons       38 beta electrons
       nuclear repulsion energy       475.8433328781 Hartrees.



 Warning!  S  atom    1 may be hypervalent but has no d functions.



 NAtoms=    9 NActive=    9 NUniq=    9 SFac= 1.00D+00 NAtFMM=   60 NAOKFM=F Big=F
 Integral buffers will be    131072 words long.
 Raffenetti 2 integral format.
 Two-electron integral symmetry is turned on.
 One-electron integrals computed using PRISM.
 NBasis=   113 RedAO= T EigKep=  1.42D-02  NBF=   113
 NBsUse=   113 1.00D-06 EigRej= -1.00D+00 NBFU=   113
 Initial guess from the checkpoint file:  "HClSO4-h2o-A.chk"
 B after Tr=     0.000000    0.000000    0.000000
         Rot=    0.999933    0.003433   -0.010924    0.001528 Ang=   1.32 deg.
 ExpMin= 7.71D-02 ExpMax= 1.06D+05 ExpMxC= 3.62D+03 IAcc=2 IRadAn=         4 AccDes= 0.00D+00
 Harris functional with IExCor=  402 and IRadAn=       4 diagonalized for initial guess.
 HarFok:  IExCor=  402 AccDes= 0.00D+00 IRadAn=         4 IDoV= 1 UseB2=F ITyADJ=14
 ICtDFT=  3500011 ScaDFX=  1.000000  1.000000  1.000000  1.000000
 FoFCou: FMM=F IPFlag=           0 FMFlag=      100000 FMFlg1=           0
         NFxFlg=           0 DoJE=T BraDBF=F KetDBF=T FulRan=T
         wScrn=  0.000000 ICntrl=     500 IOpCl=  0 I1Cent=   200000004 NGrid=           0
         NMat0=    1 NMatS0=      1 NMatT0=    0 NMatD0=    1 NMtDS0=    0 NMtDT0=    0
 Petite list used in FoFCou.
 Keep R1 ints in memory in canonical form, NReq=21740701.
 Requested convergence on RMS density matrix=1.00D-08 within 128 cycles.
 Requested convergence on MAX density matrix=1.00D-06.
 Requested convergence on             energy=1.00D-06.
 No special actions if energy rises.
 Integral accuracy reduced to 1.0D-05 until final iterations.
 Initial convergence to 1.0D-05 achieved.  Increase integral accuracy.
 SCF Done:  E(RB3LYP) =  -1235.51240501     A.U. after   18 cycles
            NFock= 18  Conv=0.37D-08     -V/T= 2.0021
 Calling FoFJK, ICntrl=      2127 FMM=F ISym2X=0 I1Cent= 0 IOpClX= 0 NMat=1 NMatS=1 NMatT=0.
 ***** Axes restored to original set *****
 -------------------------------------------------------------------
 Center     Atomic                   Forces (Hartrees/Bohr)
 Number     Number              X              Y              Z
 -------------------------------------------------------------------
      1       16           0.015443784   -0.003968586    0.005692139
      2       17           0.011827787   -0.000119701   -0.001112809
      3        8          -0.006831952   -0.005338086    0.018293223
      4        8          -0.007747560    0.003365912   -0.000908675
      5        8          -0.001722875   -0.004653109   -0.023338754
      6        8          -0.006430675    0.006488888    0.030111397
      7        8           0.002866555    0.030547901   -0.030918293
      8        1          -0.003791871   -0.010163452    0.003429708
      9        1          -0.003613193   -0.016159767   -0.001247936
 -------------------------------------------------------------------
 Cartesian Forces:  Max     0.030918293 RMS     0.013294102

 GradGradGradGradGradGradGradGradGradGradGradGradGradGradGradGradGradGrad
 Berny optimization.
 Using GEDIIS/GDIIS optimizer.
 FormGI is forming the generalized inverse of G from B-inverse, IUseBI=4.
 Internal  Forces:  Max     0.022376650 RMS     0.007945444
 Search for a local minimum.
 Step number   4 out of a maximum of   56
 All quantities printed in internal units (Hartrees-Bohrs-Radians)
 Mixed Optimization -- RFO/linear search
 Update second derivatives using D2CorX and points    3    4
 ITU=  0  0  1  0
 Use linear search instead of GDIIS.
     Eigenvalues ---    0.01754   0.02403   0.04432   0.04718   0.06598
     Eigenvalues ---    0.07341   0.08275   0.11243   0.12602   0.12903
     Eigenvalues ---    0.14977   0.17652   0.19763   0.24570   0.26608
     Eigenvalues ---    0.32834   0.46358   0.48091   0.52055   0.64300
     Eigenvalues ---    0.98490
 RFO step:  Lambda=-1.23739104D-02 EMin= 1.75405991D-02
 Quartic linear search produced a step of -0.07852.
 Iteration  1 RMS(Cart)=  0.04754381 RMS(Int)=  0.00187740
 Iteration  2 RMS(Cart)=  0.00143762 RMS(Int)=  0.00088765
 Iteration  3 RMS(Cart)=  0.00000159 RMS(Int)=  0.00088765
 Iteration  4 RMS(Cart)=  0.00000000 RMS(Int)=  0.00088765
 Variable       Old X    -DE/DX   Delta X   Delta X   Delta X     New X
                                 (Linear)    (Quad)   (Total)
    R1        3.16129  -0.01226  -0.01382  -0.00958  -0.02351   3.13777
    R2        3.73485  -0.00135  -0.01850  -0.00001  -0.01851   3.71633
    R3        3.16821  -0.02238  -0.01459  -0.01875  -0.03334   3.13487
    R4        3.15895  -0.02183  -0.00332  -0.04083  -0.04406   3.11489
    R5        3.55900  -0.01098  -0.00849  -0.03011  -0.03859   3.52041
    R6        4.60484   0.01150  -0.02039   0.14282   0.12148   4.72632
    R7        4.00430   0.00086  -0.00498   0.00586   0.00121   4.00551
    R8        4.32047   0.00313  -0.00814   0.09443   0.08692   4.40738
    R9        4.91432   0.01336  -0.02551   0.16888   0.14309   5.05740
   R10        1.84496  -0.00262  -0.00110  -0.00378  -0.00399   1.84097
   R11        1.87374  -0.01278  -0.00204  -0.02268  -0.02457   1.84917
    A1        1.60585  -0.00373   0.00515  -0.02238  -0.01717   1.58867
    A2        1.94112   0.00691   0.00799   0.04232   0.05116   1.99227
    A3        1.98996   0.00566  -0.00218   0.04156   0.03911   2.02907
    A4        1.83069   0.00196   0.00449  -0.00092   0.00389   1.83458
    A5        1.91319   0.00028  -0.00437  -0.00913  -0.01331   1.89988
    A6        2.10711  -0.01006  -0.00839  -0.05147  -0.06149   2.04562
    A7        1.47278   0.00175  -0.00077   0.00983   0.00910   1.48188
    A8        1.69977  -0.00372   0.00234  -0.02427  -0.02251   1.67726
    A9        1.68442  -0.00203  -0.00158  -0.01439  -0.01622   1.66820
   A10        0.69735  -0.00105   0.00231  -0.00571  -0.00438   0.69298
   A11        2.14294  -0.01596  -0.00331  -0.05953  -0.06284   2.08010
   A12        1.38353   0.00214  -0.00126   0.00597   0.00438   1.38791
   A13        1.17969  -0.00829   0.00209  -0.03674  -0.03407   1.14561
   A14        1.53160  -0.01426   0.00651  -0.08248  -0.07763   1.45396
   A15        2.15745  -0.01363   0.00469  -0.08298  -0.07915   2.07831
   A16        1.75450   0.00788   0.00559   0.03447   0.03793   1.79243
    D1       -1.32018   0.00133   0.00428   0.00286   0.00673  -1.31345
    D2       -1.66130   0.00023   0.00398   0.00310   0.00765  -1.65365
    D3       -0.95872  -0.00105   0.00614  -0.00418   0.00177  -0.95696
    D4        3.09856  -0.00031  -0.00527   0.00666   0.00218   3.10074
    D5        2.75744  -0.00141  -0.00557   0.00689   0.00310   2.76054
    D6       -2.82317  -0.00269  -0.00341  -0.00039  -0.00278  -2.82596
    D7        0.64411   0.00105   0.00139  -0.00920  -0.00857   0.63554
    D8        0.30298  -0.00005   0.00109  -0.00896  -0.00765   0.29534
    D9        1.00556  -0.00133   0.00325  -0.01624  -0.01354   0.99203
   D10       -2.96209  -0.00126  -0.00389  -0.02288  -0.02677  -2.98885
   D11       -0.99712   0.00513   0.00757   0.01446   0.02207  -0.97505
   D12        1.28930  -0.00590  -0.00255  -0.05663  -0.05922   1.23008
   D13       -0.60643  -0.00065  -0.00199   0.01093   0.00971  -0.59672
   D14        1.16527  -0.00235   0.00086  -0.00153  -0.00051   1.16476
   D15       -2.98941  -0.00729  -0.00249  -0.05195  -0.05147  -3.04088
   D16       -0.39129   0.00303  -0.00270   0.02595   0.02309  -0.36820
   D17        0.39693  -0.00190   0.00127  -0.02229  -0.02086   0.37607
   D18        1.40904  -0.00309   0.00690  -0.06756  -0.05882   1.35022
   D19       -0.35643  -0.00179  -0.00582  -0.04626  -0.05326  -0.40969
         Item               Value     Threshold  Converged?
 Maximum Force            0.022377     0.000450     NO 
 RMS     Force            0.007945     0.000300     NO 
 Maximum Displacement     0.171544     0.001800     NO 
 RMS     Displacement     0.047970     0.001200     NO 
 Predicted change in Energy=-7.012295D-03
 GradGradGradGradGradGradGradGradGradGradGradGradGradGradGradGradGradGrad

                          Input orientation:                          
 ---------------------------------------------------------------------
 Center     Atomic      Atomic             Coordinates (Angstroms)
 Number     Number       Type             X           Y           Z
 ---------------------------------------------------------------------
      1         16           0       -0.810799   -1.157035    0.029103
      2         17           0       -4.102135   -0.887823   -0.042482
      3          8           0        0.141105    0.149297   -0.350939
      4          8           0       -2.436295   -0.152532   -0.435918
      5          8           0       -0.936808   -1.454476    1.656249
      6          8           0       -0.688240   -2.463459   -0.968507
      7          8           0       -0.337325   -0.475075   -2.725086
      8          1           0        0.557847   -0.447242   -2.341735
      9          1           0       -0.689295    0.413314   -2.514339
 ---------------------------------------------------------------------
                    Distance matrix (angstroms):
                    1          2          3          4          5
     1  S    0.000000
     2  Cl   3.303104   0.000000
     3  O    1.660438   4.379024   0.000000
     4  O    1.966598   1.862919   2.596403   0.000000
     5  O    1.658902   3.636768   2.786179   2.884560   0.000000
     6  O    1.648330   3.872316   2.809929   2.946138   2.822974
     7  O    2.876596   4.641177   2.501062   3.122499   4.529317
     8  H    2.828050   5.214988   2.119623   3.561443   4.385475
     9  H    2.991631   4.410274   2.332288   2.773450   4.576430
                    6          7          8          9
     6  O    0.000000
     7  O    2.676263   0.000000
     8  H    2.739273   0.974200   0.000000
     9  H    3.265795   0.978536   1.525028   0.000000
 Stoichiometry    ClH2O5S(1-)
 Framework group  C1[X(ClH2O5S)]
 Deg. of freedom    21
 Full point group                 C1      NOp   1
 Largest Abelian subgroup         C1      NOp   1
 Largest concise Abelian subgroup C1      NOp   1
                         Standard orientation:                         
 ---------------------------------------------------------------------
 Center     Atomic      Atomic             Coordinates (Angstroms)
 Number     Number       Type             X           Y           Z
 ---------------------------------------------------------------------
      1         16           0        0.570628    0.668666    0.053018
      2         17           0       -2.508797   -0.525878    0.079467
      3          8           0        1.621724    0.237828   -1.158028
      4          8           0       -0.791009   -0.569497   -0.640095
      5          8           0       -0.088234    2.180535   -0.126171
      6          8           0        0.986109    0.203705    1.578855
      7          8           0        1.935333   -1.861109    0.165385
      8          1           0        2.655660   -1.239505   -0.043908
      9          1           0        1.552449   -2.050927   -0.714899
 ---------------------------------------------------------------------
 Rotational constants (GHZ):      2.1324663      1.1562623      0.9440138
 Standard basis: 6-311G (5D, 7F)
 There are   113 symmetry adapted cartesian basis functions of A   symmetry.
 There are   113 symmetry adapted basis functions of A   symmetry.
   113 basis functions,   223 primitive gaussians,   113 cartesian basis functions
    38 alpha electrons       38 beta electrons
       nuclear repulsion energy       480.1023868192 Hartrees.



 Warning!  S  atom    1 may be hypervalent but has no d functions.



 NAtoms=    9 NActive=    9 NUniq=    9 SFac= 1.00D+00 NAtFMM=   60 NAOKFM=F Big=F
 Integral buffers will be    131072 words long.
 Raffenetti 2 integral format.
 Two-electron integral symmetry is turned on.
 One-electron integrals computed using PRISM.
 NBasis=   113 RedAO= T EigKep=  1.39D-02  NBF=   113
 NBsUse=   113 1.00D-06 EigRej= -1.00D+00 NBFU=   113
 Initial guess from the checkpoint file:  "HClSO4-h2o-A.chk"
 B after Tr=     0.000000    0.000000    0.000000
         Rot=    0.999840    0.006244    0.005829   -0.015703 Ang=   2.05 deg.
 ExpMin= 7.71D-02 ExpMax= 1.06D+05 ExpMxC= 3.62D+03 IAcc=2 IRadAn=         4 AccDes= 0.00D+00
 Harris functional with IExCor=  402 and IRadAn=       4 diagonalized for initial guess.
 HarFok:  IExCor=  402 AccDes= 0.00D+00 IRadAn=         4 IDoV= 1 UseB2=F ITyADJ=14
 ICtDFT=  3500011 ScaDFX=  1.000000  1.000000  1.000000  1.000000
 FoFCou: FMM=F IPFlag=           0 FMFlag=      100000 FMFlg1=           0
         NFxFlg=           0 DoJE=T BraDBF=F KetDBF=T FulRan=T
         wScrn=  0.000000 ICntrl=     500 IOpCl=  0 I1Cent=   200000004 NGrid=           0
         NMat0=    1 NMatS0=      1 NMatT0=    0 NMatD0=    1 NMtDS0=    0 NMtDT0=    0
 Petite list used in FoFCou.
 Keep R1 ints in memory in canonical form, NReq=21740701.
 Requested convergence on RMS density matrix=1.00D-08 within 128 cycles.
 Requested convergence on MAX density matrix=1.00D-06.
 Requested convergence on             energy=1.00D-06.
 No special actions if energy rises.
 Integral accuracy reduced to 1.0D-05 until final iterations.
 Initial convergence to 1.0D-05 achieved.  Increase integral accuracy.
 SCF Done:  E(RB3LYP) =  -1235.52303336     A.U. after   16 cycles
            NFock= 16  Conv=0.79D-08     -V/T= 2.0020
 Calling FoFJK, ICntrl=      2127 FMM=F ISym2X=0 I1Cent= 0 IOpClX= 0 NMat=1 NMatS=1 NMatT=0.
 ***** Axes restored to original set *****
 -------------------------------------------------------------------
 Center     Atomic                   Forces (Hartrees/Bohr)
 Number     Number              X              Y              Z
 -------------------------------------------------------------------
      1       16           0.006301512   -0.006465757    0.006989085
      2       17           0.005780544   -0.000295225   -0.000589502
      3        8          -0.001968615   -0.004085752    0.013461187
      4        8          -0.004932892    0.002996395   -0.000568646
      5        8           0.000390180    0.000117285   -0.015834012
      6        8          -0.002445712    0.003615834    0.019573226
      7        8           0.004795445    0.017867248   -0.027039291
      8        1          -0.004055148   -0.006654864    0.003079059
      9        1          -0.003865313   -0.007095164    0.000928894
 -------------------------------------------------------------------
 Cartesian Forces:  Max     0.027039291 RMS     0.009153795

 GradGradGradGradGradGradGradGradGradGradGradGradGradGradGradGradGradGrad
 Berny optimization.
 Using GEDIIS/GDIIS optimizer.
 FormGI is forming the generalized inverse of G from B-inverse, IUseBI=4.
 Internal  Forces:  Max     0.015580017 RMS     0.005140464
 Search for a local minimum.
 Step number   5 out of a maximum of   56
 All quantities printed in internal units (Hartrees-Bohrs-Radians)
 Mixed Optimization -- RFO/linear search
 Update second derivatives using D2CorX and points    4    5
 DE= -1.06D-02 DEPred=-7.01D-03 R= 1.52D+00
 TightC=F SS=  1.41D+00  RLast= 3.04D-01 DXNew= 8.4853D-01 9.1071D-01
 Trust test= 1.52D+00 RLast= 3.04D-01 DXMaxT set to 8.49D-01
 ITU=  1  0  0  1  0
 Use linear search instead of GDIIS.
     Eigenvalues ---    0.01725   0.02210   0.03428   0.04522   0.05454
     Eigenvalues ---    0.07382   0.08561   0.10652   0.12588   0.12904
     Eigenvalues ---    0.13404   0.17729   0.20610   0.22330   0.26334
     Eigenvalues ---    0.32891   0.43922   0.47803   0.52138   0.62922
     Eigenvalues ---    0.98179
 RFO step:  Lambda=-4.26563638D-03 EMin= 1.72515526D-02
 Quartic linear search produced a step of  1.67374.
 Iteration  1 RMS(Cart)=  0.07819723 RMS(Int)=  0.02873738
 Iteration  2 RMS(Cart)=  0.01870536 RMS(Int)=  0.00780495
 Iteration  3 RMS(Cart)=  0.00050605 RMS(Int)=  0.00777897
 Iteration  4 RMS(Cart)=  0.00001540 RMS(Int)=  0.00777896
 Iteration  5 RMS(Cart)=  0.00000062 RMS(Int)=  0.00777896
 Variable       Old X    -DE/DX   Delta X   Delta X   Delta X     New X
                                 (Linear)    (Quad)   (Total)
    R1        3.13777  -0.00701  -0.03936   0.01696  -0.02363   3.11415
    R2        3.71633   0.00095  -0.03099   0.03305   0.00206   3.71839
    R3        3.13487  -0.01558  -0.05581   0.00841  -0.04740   3.08747
    R4        3.11489  -0.01269  -0.07374  -0.00352  -0.07813   3.03676
    R5        3.52041  -0.00516  -0.06459   0.01198  -0.05261   3.46780
    R6        4.72632   0.01006   0.20333   0.10836   0.29544   5.02176
    R7        4.00551   0.00002   0.00202  -0.02133  -0.01050   3.99501
    R8        4.40738   0.00234   0.14548   0.03473   0.18659   4.59398
    R9        5.05740   0.01087   0.23949   0.13914   0.37831   5.43572
   R10        1.84097  -0.00227  -0.00668  -0.00340  -0.00005   1.84092
   R11        1.84917  -0.00460  -0.04113   0.01225  -0.02512   1.82405
    A1        1.58867  -0.00113  -0.02875   0.00994  -0.01952   1.56916
    A2        1.99227   0.00257   0.08562  -0.03289   0.05592   2.04819
    A3        2.02907   0.00169   0.06545  -0.01489   0.04711   2.07618
    A4        1.83458   0.00070   0.00650  -0.00031   0.00519   1.83977
    A5        1.89988   0.00047  -0.02227   0.01635  -0.00481   1.89507
    A6        2.04562  -0.00382  -0.10292   0.02545  -0.08023   1.96538
    A7        1.48188   0.00233   0.01523   0.02292   0.03902   1.52089
    A8        1.67726  -0.00190  -0.03767   0.00117  -0.04147   1.63579
    A9        1.66820  -0.00075  -0.02715  -0.00168  -0.03148   1.63672
   A10        0.69298  -0.00035  -0.00733  -0.00190  -0.01832   0.67465
   A11        2.08010  -0.00921  -0.10518  -0.00525  -0.11043   1.96967
   A12        1.38791   0.00253   0.00733   0.01611   0.01818   1.40609
   A13        1.14561  -0.00617  -0.05703  -0.03620  -0.08559   1.06002
   A14        1.45396  -0.01181  -0.12994  -0.08135  -0.22353   1.23044
   A15        2.07831  -0.01168  -0.13247  -0.08400  -0.21681   1.86150
   A16        1.79243   0.00440   0.06349  -0.00253   0.03182   1.82426
    D1       -1.31345   0.00039   0.01126  -0.00322   0.00635  -1.30710
    D2       -1.65365   0.00029   0.01281   0.00431   0.02337  -1.63028
    D3       -0.95696  -0.00015   0.00295   0.00235   0.00284  -0.95412
    D4        3.10074  -0.00026   0.00365  -0.00244   0.00159   3.10233
    D5        2.76054  -0.00036   0.00520   0.00509   0.01861   2.77915
    D6       -2.82596  -0.00079  -0.00466   0.00313  -0.00192  -2.82787
    D7        0.63554   0.00068  -0.01435   0.01748  -0.00010   0.63544
    D8        0.29534   0.00058  -0.01280   0.02502   0.01692   0.31226
    D9        0.99203   0.00014  -0.02265   0.02305  -0.00361   0.98842
   D10       -2.98885  -0.00096  -0.04480  -0.01518  -0.06215  -3.05101
   D11       -0.97505   0.00148   0.03694  -0.04659  -0.00888  -0.98393
   D12        1.23008  -0.00242  -0.09911  -0.00644  -0.10414   1.12595
   D13       -0.59672  -0.00043   0.01625  -0.01235   0.00816  -0.58856
   D14        1.16476  -0.00078  -0.00085   0.00227   0.00255   1.16731
   D15       -3.04088  -0.00207  -0.08615   0.03177  -0.04451  -3.08539
   D16       -0.36820   0.00129   0.03865  -0.00725   0.02915  -0.33904
   D17        0.37607  -0.00070  -0.03491   0.00963  -0.02351   0.35257
   D18        1.35022  -0.00218  -0.09846  -0.03345  -0.11273   1.23748
   D19       -0.40969  -0.00095  -0.08915   0.01257  -0.09619  -0.50588
         Item               Value     Threshold  Converged?
 Maximum Force            0.015580     0.000450     NO 
 RMS     Force            0.005140     0.000300     NO 
 Maximum Displacement     0.264270     0.001800     NO 
 RMS     Displacement     0.085352     0.001200     NO 
 Predicted change in Energy=-1.044828D-02
 GradGradGradGradGradGradGradGradGradGradGradGradGradGradGradGradGradGrad

                          Input orientation:                          
 ---------------------------------------------------------------------
 Center     Atomic      Atomic             Coordinates (Angstroms)
 Number     Number       Type             X           Y           Z
 ---------------------------------------------------------------------
      1         16           0       -0.804586   -1.135389    0.059914
      2         17           0       -3.966051   -0.959093   -0.074739
      3          8           0        0.158316    0.150572   -0.307255
      4          8           0       -2.393484   -0.078521   -0.419904
      5          8           0       -0.991010   -1.506635    1.640037
      6          8           0       -0.753761   -2.438543   -0.879023
      7          8           0       -0.297483   -0.408278   -2.864932
      8          1           0        0.488638   -0.488400   -2.295189
      9          1           0       -0.742524    0.389257   -2.552564
 ---------------------------------------------------------------------
                    Distance matrix (angstroms):
                    1          2          3          4          5
     1  S    0.000000
     2  Cl   3.169239   0.000000
     3  O    1.647935   4.277361   0.000000
     4  O    1.967688   1.835079   2.564538   0.000000
     5  O    1.633819   3.477229   2.803433   2.872246   0.000000
     6  O    1.606984   3.626906   2.803984   2.910187   2.696368
     7  O    3.056235   4.641871   2.657400   3.237302   4.688508
     8  H    2.763609   4.999621   2.114067   3.462849   4.325756
     9  H    3.025466   4.283549   2.431027   2.737284   4.608042
                    6          7          8          9
     6  O    0.000000
     7  O    2.876457   0.000000
     8  H    2.711483   0.974173   0.000000
     9  H    3.285928   0.965244   1.533716   0.000000
 Stoichiometry    ClH2O5S(1-)
 Framework group  C1[X(ClH2O5S)]
 Deg. of freedom    21
 Full point group                 C1      NOp   1
 Largest Abelian subgroup         C1      NOp   1
 Largest concise Abelian subgroup C1      NOp   1
                         Standard orientation:                         
 ---------------------------------------------------------------------
 Center     Atomic      Atomic             Coordinates (Angstroms)
 Number     Number       Type             X           Y           Z
 ---------------------------------------------------------------------
      1         16           0        0.489012    0.720614    0.033271
      2         17           0       -2.360875   -0.665031    0.080239
      3          8           0        1.608856    0.375773   -1.125489
      4          8           0       -0.716619   -0.632041   -0.733915
      5          8           0       -0.311861    2.138876   -0.095176
      6          8           0        0.800190    0.322836    1.558832
      7          8           0        2.123654   -1.854657    0.224303
      8          1           0        2.625257   -1.032030    0.080454
      9          1           0        1.651674   -1.998559   -0.605289
 ---------------------------------------------------------------------
 Rotational constants (GHZ):      2.0659386      1.2173137      0.9697206
 Standard basis: 6-311G (5D, 7F)
 There are   113 symmetry adapted cartesian basis functions of A   symmetry.
 There are   113 symmetry adapted basis functions of A   symmetry.
   113 basis functions,   223 primitive gaussians,   113 cartesian basis functions
    38 alpha electrons       38 beta electrons
       nuclear repulsion energy       484.4569373402 Hartrees.



 Warning!  S  atom    1 may be hypervalent but has no d functions.



 NAtoms=    9 NActive=    9 NUniq=    9 SFac= 1.00D+00 NAtFMM=   60 NAOKFM=F Big=F
 Integral buffers will be    131072 words long.
 Raffenetti 2 integral format.
 Two-electron integral symmetry is turned on.
 One-electron integrals computed using PRISM.
 NBasis=   113 RedAO= T EigKep=  1.36D-02  NBF=   113
 NBsUse=   113 1.00D-06 EigRej= -1.00D+00 NBFU=   113
 Initial guess from the checkpoint file:  "HClSO4-h2o-A.chk"
 B after Tr=     0.000000    0.000000    0.000000
         Rot=    0.999250    0.003610    0.009572   -0.037342 Ang=   4.44 deg.
 ExpMin= 7.71D-02 ExpMax= 1.06D+05 ExpMxC= 3.62D+03 IAcc=2 IRadAn=         4 AccDes= 0.00D+00
 Harris functional with IExCor=  402 and IRadAn=       4 diagonalized for initial guess.
 HarFok:  IExCor=  402 AccDes= 0.00D+00 IRadAn=         4 IDoV= 1 UseB2=F ITyADJ=14
 ICtDFT=  3500011 ScaDFX=  1.000000  1.000000  1.000000  1.000000
 FoFCou: FMM=F IPFlag=           0 FMFlag=      100000 FMFlg1=           0
         NFxFlg=           0 DoJE=T BraDBF=F KetDBF=T FulRan=T
         wScrn=  0.000000 ICntrl=     500 IOpCl=  0 I1Cent=   200000004 NGrid=           0
         NMat0=    1 NMatS0=      1 NMatT0=    0 NMatD0=    1 NMtDS0=    0 NMtDT0=    0
 Petite list used in FoFCou.
 Keep R1 ints in memory in canonical form, NReq=21740701.
 Requested convergence on RMS density matrix=1.00D-08 within 128 cycles.
 Requested convergence on MAX density matrix=1.00D-06.
 Requested convergence on             energy=1.00D-06.
 No special actions if energy rises.
 Integral accuracy reduced to 1.0D-05 until final iterations.
 Initial convergence to 1.0D-05 achieved.  Increase integral accuracy.
 SCF Done:  E(RB3LYP) =  -1235.53496072     A.U. after   17 cycles
            NFock= 17  Conv=0.61D-08     -V/T= 2.0019
 Calling FoFJK, ICntrl=      2127 FMM=F ISym2X=0 I1Cent= 0 IOpClX= 0 NMat=1 NMatS=1 NMatT=0.
 ***** Axes restored to original set *****
 -------------------------------------------------------------------
 Center     Atomic                   Forces (Hartrees/Bohr)
 Number     Number              X              Y              Z
 -------------------------------------------------------------------
      1       16          -0.002499790    0.002260012    0.014120306
      2       17          -0.005244979   -0.001044492   -0.000335019
[...]
   134. RY*(  10) O   7                  0.00000     3.15067   
   135. RY*(  11) O   7                  0.00000     3.08423   
   136. RY*(  12) O   7                  0.00000     3.60653   
   137. RY*(  13) O   7                  0.00000     3.48006   
   138. RY*(   1) H   8                  0.00253     0.72469   
   139. RY*(   2) H   8                  0.00138     1.68452   
   140. RY*(   3) H   8                  0.00092     1.90878   
   141. RY*(   4) H   8                  0.00064     2.20811   
   142. RY*(   5) H   8                  0.00001     2.57848   
   143. RY*(   1) H   9                  0.00286     0.68950   
   144. RY*(   2) H   9                  0.00147     1.67562   
   145. RY*(   3) H   9                  0.00098     1.92933   
   146. RY*(   4) H   9                  0.00047     2.21339   
   147. RY*(   5) H   9                  0.00002     2.60720   
   153. BD*(   1) O   7 - H   8          0.01294     0.59157   
   154. BD*(   1) O   7 - H   9          0.00753     0.58542   
       -------------------------------
              Total Lewis    9.97776  ( 99.6802%)
        Valence non-Lewis    0.02047  (  0.2045%)
        Rydberg non-Lewis    0.01155  (  0.1154%)
       -------------------------------
            Total unit  2   10.00978  (100.0000%)
           Charge unit  2   -0.00978
 1\1\GINC-BLADI9\SP\RB3LYP\6-311G(d,p)\Cl1H2O5S1(1-)\SARARIOP\21-Jun-20
 17\0\\# B3LYP/6-311G** geom=check guess=read pop=nboread\\Title Card R
 equired\\-1,1\S,0,-0.7252288406,-1.4534748794,0.2586859684\Cl,0,-3.804
 2346004,-0.9006571062,-0.5525221627\O,0,0.5633719557,-0.9057823612,-0.
 5839332752\O,0,-2.041121141,-0.61927775,-0.9953181162\O,0,-1.003966939
 2,-0.7474461673,1.6919128124\O,0,-1.0177500317,-3.0466106444,0.1767407
 771\O,0,-0.3201367283,0.6103467047,-2.8854194032\H,0,0.2668954406,0.17
 89396937,-2.2337849059\H,0,-1.2197742551,0.40893181,-2.5700163448\\Ver
 sion=AM64L-G09RevD.01\State=1-A\HF=-1235.7780826\RMSD=5.985e-09\Dipole
 =-1.0901151,-0.136174,0.2179278\Quadrupole=3.9486469,0.1461382,-4.0947
 851,-1.6388479,2.4892807,4.8613272\PG=C01 [X(Cl1H2O5S1)]\\@


 FORGIVE MY NONSENSE AS I ALSO FORGIVE THOSE WHO THINK THEY TALK SENSE

                                                       -- ROBERT FROST
 Job cpu time:       0 days  0 hours  5 minutes 15.1 seconds.
 File lengths (MBytes):  RWF=     11 Int=      0 D2E=      0 Chk=      5 Scr=      1
 Normal termination of Gaussian 09 at Wed Jun 21 02:09:47 2017.
 Initial command:
 /usr/local/gaussian/gaussian09.d1/g09/l1.exe "/scratch/sarariop/HClSO4-h2o-A.com/Gau-27584.inp" -scrdir="/scratch/sarariop/HClSO4-h2o-A.com/"
 Default is to use a total of   8 processors:
                                8 via shared-memory
                                1 via Linda
 Entering Link 1 = /usr/local/gaussian/gaussian09.d1/g09/l1.exe PID=     31848.
  
 Copyright (c) 1988,1990,1992,1993,1995,1998,2003,2009,2013,
            Gaussian, Inc.  All Rights Reserved.
  
 This is part of the Gaussian(R) 09 program.  It is based on
 the Gaussian(R) 03 system (copyright 2003, Gaussian, Inc.),
 the Gaussian(R) 98 system (copyright 1998, Gaussian, Inc.),
 the Gaussian(R) 94 system (copyright 1995, Gaussian, Inc.),
 the Gaussian 92(TM) system (copyright 1992, Gaussian, Inc.),
 the Gaussian 90(TM) system (copyright 1990, Gaussian, Inc.),
 the Gaussian 88(TM) system (copyright 1988, Gaussian, Inc.),
 the Gaussian 86(TM) system (copyright 1986, Carnegie Mellon
 University), and the Gaussian 82(TM) system (copyright 1983,
 Carnegie Mellon University). Gaussian is a federally registered
 trademark of Gaussian, Inc.
  
 This software contains proprietary and confidential information,
 including trade secrets, belonging to Gaussian, Inc.
  
 This software is provided under written license and may be
 used, copied, transmitted, or stored only in accord with that
 written license.
  
 The following legend is applicable only to US Government
 contracts under FAR:
  
                    RESTRICTED RIGHTS LEGEND
  
 Use, reproduction and disclosure by the US Government is
 subject to restrictions as set forth in subparagraphs (a)
 and (c) of the Commercial Computer Software - Restricted
 Rights clause in FAR 52.227-19.
  
 Gaussian, Inc.
 340 Quinnipiac St., Bldg. 40, Wallingford CT 06492
  
  
 ---------------------------------------------------------------
 Warning -- This program may not be used in any manner that
 competes with the business of Gaussian, Inc. or will provide
 assistance to any competitor of Gaussian, Inc.  The licensee
 of this program is prohibited from giving any competitor of
 Gaussian, Inc. access to this program.  By using this program,
 the user acknowledges that Gaussian, Inc. is engaged in the
 business of creating and licensing software in the field of
 computational chemistry and represents and warrants to the
 licensee that it is not a competitor of Gaussian, Inc. and that
 it will not use this program in any manner prohibited above.
 ---------------------------------------------------------------
  

 Cite this work as:
 Gaussian 09, Revision D.01,
 M. J. Frisch, G. W. Trucks, H. B. Schlegel, G. E. Scuseria, 
 M. A. Robb, J. R. Cheeseman, G. Scalmani, V. Barone, B. Mennucci, 
 G. A. Petersson, H. Nakatsuji, M. Caricato, X. Li, H. P. Hratchian, 
 A. F. Izmaylov, J. Bloino, G. Zheng, J. L. Sonnenberg, M. Hada, 
 M. Ehara, K. Toyota, R. Fukuda, J. Hasegawa, M. Ishida, T. Nakajima, 
 Y. Honda, O. Kitao, H. Nakai, T. Vreven, J. A. Montgomery, Jr., 
 J. E. Peralta, F. Ogliaro, M. Bearpark, J. J. Heyd, E. Brothers, 
 K. N. Kudin, V. N. Staroverov, T. Keith, R. Kobayashi, J. Normand, 
 K. Raghavachari, A. Rendell, J. C. Burant, S. S. Iyengar, J. Tomasi, 
 M. Cossi, N. Rega, J. M. Millam, M. Klene, J. E. Knox, J. B. Cross, 
 V. Bakken, C. Adamo, J. Jaramillo, R. Gomperts, R. E. Stratmann, 
 O. Yazyev, A. J. Austin, R. Cammi, C. Pomelli, J. W. Ochterski, 
 R. L. Martin, K. Morokuma, V. G. Zakrzewski, G. A. Voth, 
 P. Salvador, J. J. Dannenberg, S. Dapprich, A. D. Daniels, 
 O. Farkas, J. B. Foresman, J. V. Ortiz, J. Cioslowski, 
 and D. J. Fox, Gaussian, Inc., Wallingford CT, 2013.
 
 ******************************************
 Gaussian 09:  AM64L-G09RevD.01 24-Apr-2013
                21-Jun-2017 
 ******************************************
 %chk=HClSO4-h2o-A.chk
 Default route:  MaxDisk=56GB
 -------------------------------------------------
 # B3LYP/6-311G** geom=check guess=read output=wfx
 -------------------------------------------------
 1/29=2,38=1/1;
 2/12=2,40=1/2;
 3/5=4,6=6,7=101,11=2,14=-4,16=1,25=1,30=1,74=-5,116=-2/1,2,3;
 4/5=1/1;
 5/5=2,38=6/2;
 6/7=2,8=2,9=2,10=2,28=1/1;
 99/5=1,6=200,9=1/99;
 -------------------
 Title Card Required
 -------------------
 Structure from the checkpoint file:  "HClSO4-h2o-A.chk"
 Charge = -1 Multiplicity = 1
 Redundant internal coordinates found in file.
 S,0,-0.7252288406,-1.4534748794,0.2586859684
 Cl,0,-3.8042346004,-0.9006571062,-0.5525221627
 O,0,0.5633719557,-0.9057823612,-0.5839332752
 O,0,-2.041121141,-0.61927775,-0.9953181162
 O,0,-1.0039669392,-0.7474461673,1.6919128124
 O,0,-1.0177500317,-3.0466106444,0.1767407771
 O,0,-0.3201367283,0.6103467047,-2.8854194032
 H,0,0.2668954406,0.1789396937,-2.2337849059
 H,0,-1.2197742551,0.40893181,-2.5700163448
 Recover connectivity data from disk.
                          Input orientation:                          
 ---------------------------------------------------------------------
 Center     Atomic      Atomic             Coordinates (Angstroms)
 Number     Number       Type             X           Y           Z
 ---------------------------------------------------------------------
      1         16           0       -0.725229   -1.453475    0.258686
      2         17           0       -3.804235   -0.900657   -0.552522
      3          8           0        0.563372   -0.905782   -0.583933
      4          8           0       -2.041121   -0.619278   -0.995318
      5          8           0       -1.003967   -0.747446    1.691913
      6          8           0       -1.017750   -3.046611    0.176741
      7          8           0       -0.320137    0.610347   -2.885419
      8          1           0        0.266895    0.178940   -2.233785
      9          1           0       -1.219774    0.408932   -2.570016
 ---------------------------------------------------------------------
                    Distance matrix (angstroms):
                    1          2          3          4          5
     1  S    0.000000
     2  Cl   3.231709   0.000000
     3  O    1.634156   4.367723   0.000000
     4  O    1.999996   1.839514   2.652302   0.000000
     5  O    1.621823   3.592000   2.767869   2.883284   0.000000
     6  O    1.621840   3.591857   2.767981   2.883220   2.753560
     7  O    3.782705   4.456959   2.894145   2.836591   4.823193
     8  H    3.140302   4.535005   1.996630   2.738228   4.228993
     9  H    3.422673   3.530544   2.975334   2.052194   4.421292
                    6          7          8          9
     6  O    0.000000
     7  O    4.820459   0.000000
     8  H    4.226715   0.977418   0.000000
     9  H    4.418853   0.974369   1.541472   0.000000
 Stoichiometry    ClH2O5S(1-)
 Framework group  C1[X(ClH2O5S)]
 Deg. of freedom    21
 Full point group                 C1      NOp   1
 Largest Abelian subgroup         C1      NOp   1
 Largest concise Abelian subgroup C1      NOp   1
                         Standard orientation:                         
 ---------------------------------------------------------------------
 Center     Atomic      Atomic             Coordinates (Angstroms)
 Number     Number       Type             X           Y           Z
 ---------------------------------------------------------------------
      1         16           0        0.546733    0.924261    0.000115
      2         17           0       -2.290631   -0.622772    0.000013
      3          8           0        2.002384    0.181602   -0.001583
      4          8           0       -0.460052   -0.803850   -0.001255
      5          8           0        0.112461    1.665312   -1.375589
      6          8           0        0.113881    1.662178    1.377969
      7          8           0        1.656948   -2.691853    0.000226
      8          1           0        2.085315   -1.813305   -0.000286
      9          1           0        0.702701   -2.494857    0.000069
 ---------------------------------------------------------------------
 Rotational constants (GHZ):      1.5538933      1.3610462      0.8784989
 Standard basis: 6-311G(d,p) (5D, 7F)
 There are   161 symmetry adapted cartesian basis functions of A   symmetry.
 There are   154 symmetry adapted basis functions of A   symmetry.
   154 basis functions,   271 primitive gaussians,   161 cartesian basis functions
    38 alpha electrons       38 beta electrons
       nuclear repulsion energy       473.6231106802 Hartrees.
 NAtoms=    9 NActive=    9 NUniq=    9 SFac= 1.00D+00 NAtFMM=   60 NAOKFM=F Big=F
 Integral buffers will be    131072 words long.
 Raffenetti 2 integral format.
 Two-electron integral symmetry is turned on.
 One-electron integrals computed using PRISM.
 NBasis=   154 RedAO= T EigKep=  1.35D-02  NBF=   154
 NBsUse=   154 1.00D-06 EigRej= -1.00D+00 NBFU=   154
 Initial guess from the checkpoint file:  "HClSO4-h2o-A.chk"
 B after Tr=     0.000000    0.000000    0.000000
         Rot=    1.000000    0.000000    0.000000    0.000000 Ang=   0.00 deg.
 Keep R1 ints in memory in canonical form, NReq=73452559.
 Requested convergence on RMS density matrix=1.00D-08 within 128 cycles.
 Requested convergence on MAX density matrix=1.00D-06.
 Requested convergence on             energy=1.00D-06.
 No special actions if energy rises.
 SCF Done:  E(RB3LYP) =  -1235.77808260     A.U. after    1 cycles
            NFock=  1  Conv=0.14D-08     -V/T= 2.0028

 **********************************************************************

            Population analysis using the SCF density.

 **********************************************************************

 Orbital symmetries:
       Occupied  (A) (A) (A) (A) (A) (A) (A) (A) (A) (A) (A) (A)
                 (A) (A) (A) (A) (A) (A) (A) (A) (A) (A) (A) (A)
                 (A) (A) (A) (A) (A) (A) (A) (A) (A) (A) (A) (A)
                 (A) (A)
       Virtual   (A) (A) (A) (A) (A) (A) (A) (A) (A) (A) (A) (A)
                 (A) (A) (A) (A) (A) (A) (A) (A) (A) (A) (A) (A)
                 (A) (A) (A) (A) (A) (A) (A) (A) (A) (A) (A) (A)
                 (A) (A) (A) (A) (A) (A) (A) (A) (A) (A) (A) (A)
                 (A) (A) (A) (A) (A) (A) (A) (A) (A) (A) (A) (A)
                 (A) (A) (A) (A) (A) (A) (A) (A) (A) (A) (A) (A)
                 (A) (A) (A) (A) (A) (A) (A) (A) (A) (A) (A) (A)
                 (A) (A) (A) (A) (A) (A) (A) (A) (A) (A) (A) (A)
                 (A) (A) (A) (A) (A) (A) (A) (A) (A) (A) (A) (A)
                 (A) (A) (A) (A) (A) (A) (A) (A)
 The electronic state is 1-A.
 Alpha  occ. eigenvalues -- -101.45815 -88.94512 -19.05381 -18.99421 -18.99389
 Alpha  occ. eigenvalues --  -18.99389 -18.93475  -9.36758  -8.00089  -7.13543
 Alpha  occ. eigenvalues --   -7.12153  -7.12099  -5.96465  -5.96257  -5.96238
 Alpha  occ. eigenvalues --   -0.92289  -0.84709  -0.82933  -0.81339  -0.81325
 Alpha  occ. eigenvalues --   -0.66062  -0.49315  -0.36191  -0.34903  -0.31876
 Alpha  occ. eigenvalues --   -0.31778  -0.29007  -0.24905  -0.22797  -0.21235
 Alpha  occ. eigenvalues --   -0.18934  -0.18853  -0.16865  -0.16636  -0.16045
 Alpha  occ. eigenvalues --   -0.14892  -0.13985  -0.13491
 Alpha virt. eigenvalues --    0.00956   0.06612   0.11321   0.21853   0.22316
 Alpha virt. eigenvalues --    0.23653   0.30199   0.32036   0.35738   0.36744
 Alpha virt. eigenvalues --    0.40098   0.42669   0.43097   0.51187   0.55288
 Alpha virt. eigenvalues --    0.60346   0.71347   0.72894   0.78984   0.83636
 Alpha virt. eigenvalues --    0.84350   0.87198   0.88083   0.89290   0.90125
 Alpha virt. eigenvalues --    0.91897   0.97409   0.97969   0.98193   1.00910
 Alpha virt. eigenvalues --    1.02019   1.03593   1.03667   1.04577   1.07689
 Alpha virt. eigenvalues --    1.08096   1.10034   1.10450   1.13749   1.18098
 Alpha virt. eigenvalues --    1.20691   1.28139   1.35726   1.44825   1.45564
 Alpha virt. eigenvalues --    1.46722   1.50420   1.58236   1.63359   1.66034
 Alpha virt. eigenvalues --    1.80380   1.81878   1.84500   1.86419   2.17725
 Alpha virt. eigenvalues --    2.21414   2.22136   2.26911   2.27288   2.46668
 Alpha virt. eigenvalues --    2.64736   2.91717   2.92135   2.93186   2.95035
 Alpha virt. eigenvalues --    2.96350   2.96535   2.96758   2.96904   2.96930
 Alpha virt. eigenvalues --    2.98186   3.01222   3.01721   3.02627   3.12917
 Alpha virt. eigenvalues --    3.13058   3.20007   3.26336   3.26775   3.28469
 Alpha virt. eigenvalues --    3.30847   3.48210   3.50034   3.51148   3.75910
 Alpha virt. eigenvalues --    3.99461   4.86157   4.89505   4.90770   4.93749
 Alpha virt. eigenvalues --    4.93887   4.96419   4.96491   4.98440   5.00255
 Alpha virt. eigenvalues --    5.06895   5.12083   5.14993   5.18103   5.39883
 Alpha virt. eigenvalues --    5.79102   7.73104   9.49963  17.26884  17.31788
 Alpha virt. eigenvalues --   17.34142  25.50250  25.55774  25.91276  49.82615
 Alpha virt. eigenvalues --   49.87786  49.88389  49.96907  50.02262 188.74332
 Alpha virt. eigenvalues --  215.42304
          Condensed to atoms (all electrons):
               1          2          3          4          5          6
     1  S   13.873707  -0.030842   0.288040   0.070434   0.332256   0.332245
     2  Cl  -0.030842  16.949592   0.001437   0.056399   0.003223   0.003224
     3  O    0.288040   0.001437   8.333854  -0.019945  -0.029292  -0.029284
     4  O    0.070434   0.056399  -0.019945   8.418125  -0.020630  -0.020635
     5  O    0.332256   0.003223  -0.029292  -0.020630   8.269824  -0.031225
     6  O    0.332245   0.003224  -0.029284  -0.020635  -0.031225   8.269828
     7  O    0.001011   0.000787  -0.008137  -0.005812  -0.000010  -0.000010
     8  H   -0.004247   0.000187   0.027084   0.000575  -0.000173  -0.000175
     9  H    0.001397  -0.003292   0.001785   0.022122   0.000026   0.000025
               7          8          9
     1  S    0.001011  -0.004247   0.001397
     2  Cl   0.000787   0.000187  -0.003292
     3  O   -0.008137   0.027084   0.001785
     4  O   -0.005812   0.000575   0.022122
     5  O   -0.000010  -0.000173   0.000026
     6  O   -0.000010  -0.000175   0.000025
     7  O    7.895632   0.338505   0.333160
     8  H    0.338505   0.427236  -0.054989
     9  H    0.333160  -0.054989   0.451751
 Mulliken charges:
               1
     1  S    1.136001
     2  Cl   0.019286
     3  O   -0.565543
     4  O   -0.500633
     5  O   -0.524001
     6  O   -0.523995
     7  O   -0.555126
     8  H    0.265997
     9  H    0.248014
 Sum of Mulliken charges =  -1.00000
 Mulliken charges with hydrogens summed into heavy atoms:
               1
     1  S    1.136001
     2  Cl   0.019286
     3  O   -0.565543
     4  O   -0.500633
     5  O   -0.524001
     6  O   -0.523995
     7  O   -0.041115
 Electronic spatial extent (au):  <R**2>=           1305.1384
 Charge=             -1.0000 electrons
 Dipole moment (field-independent basis, Debye):
    X=             -2.8444    Y=              0.1163    Z=             -0.0003  Tot=              2.8467
 Quadrupole moment (field-independent basis, Debye-Ang):
   XX=            -65.4415   YY=            -76.4754   ZZ=            -64.2414
   XY=              6.5297   XZ=             -0.0020   YZ=              0.0031
 Traceless Quadrupole moment (field-independent basis, Debye-Ang):
   XX=              3.2779   YY=             -7.7560   ZZ=              4.4780
   XY=              6.5297   XZ=             -0.0020   YZ=              0.0031
 Octapole moment (field-independent basis, Debye-Ang**2):
  XXX=            -13.8614  YYY=             22.2229  ZZZ=             -0.0258  XYY=            -22.2364
  XXY=             12.7006  XXZ=              0.0134  XZZ=              0.8157  YZZ=            -11.5626
  YYZ=              0.0100  XYZ=              0.0033
 Hexadecapole moment (field-independent basis, Debye-Ang**3):
 XXXX=           -737.1725 YYYY=           -802.0139 ZZZZ=           -200.4807 XXXY=              4.5733
 XXXZ=             -0.0101 YYYX=             83.0642 YYYZ=              0.0568 ZZZX=             -0.0118
 ZZZY=             -0.0237 XXYY=           -282.6637 XXZZ=           -161.4380 YYZZ=           -163.3013
 XXYZ=              0.0112 YYXZ=             -0.0177 ZZXY=             -3.1992
 N-N= 4.736231106802D+02 E-N=-3.892819319730D+03  KE= 1.232329296515D+03
 1\1\GINC-BLADI9\SP\RB3LYP\6-311G(d,p)\Cl1H2O5S1(1-)\SARARIOP\21-Jun-20
 17\0\\# B3LYP/6-311G** geom=check guess=read output=wfx\\Title Card Re
 quired\\-1,1\S,0,-0.7252288406,-1.4534748794,0.2586859684\Cl,0,-3.8042
 346004,-0.9006571062,-0.5525221627\O,0,0.5633719557,-0.9057823612,-0.5
 839332752\O,0,-2.041121141,-0.61927775,-0.9953181162\O,0,-1.0039669392
 ,-0.7474461673,1.6919128124\O,0,-1.0177500317,-3.0466106444,0.17674077
 71\O,0,-0.3201367283,0.6103467047,-2.8854194032\H,0,0.2668954406,0.178
 9396937,-2.2337849059\H,0,-1.2197742551,0.40893181,-2.5700163448\\Vers
 ion=AM64L-G09RevD.01\State=1-A\HF=-1235.7780826\RMSD=1.428e-09\Dipole=
 -1.0901161,-0.1361744,0.2179281\Quadrupole=3.9486474,0.1461383,-4.0947
 857,-1.6388484,2.4892813,4.8613269\PG=C01 [X(Cl1H2O5S1)]\\@

 Writing a WFNX file to "HClSO4-h2o-A.wfx"


 IN NATURE THERE ARE NEITHER REWARDS OR
 PUNISHMENTS -- THERE ARE CONSEQUENCES.

                            -- ROBERT GREEN INGERSOLL
 Job cpu time:       0 days  0 hours  0 minutes 45.6 seconds.
 File lengths (MBytes):  RWF=     11 Int=      0 D2E=      0 Chk=      5 Scr=      1
 Normal termination of Gaussian 09 at Wed Jun 21 02:09:54 2017.
