 Entering Gaussian System, Link 0=g09
 Initial command:
 /usr/local/gaussian/gaussian09.d1/g09/l1.exe "/scratch/sarariop/HClSO4-h2o.com/Gau-24222.inp" -scrdir="/scratch/sarariop/HClSO4-h2o.com/"
 Default is to use a total of  10 processors:
                               10 via shared-memory
                                1 via Linda
 Entering Link 1 = /usr/local/gaussian/gaussian09.d1/g09/l1.exe PID=     24223.
  
 Copyright (c) 1988,1990,1992,1993,1995,1998,2003,2009,2013,
            Gaussian, Inc.  All Rights Reserved.
  
 This is part of the Gaussian(R) 09 program.  It is based on
 the Gaussian(R) 03 system (copyright 2003, Gaussian, Inc.),
 the Gaussian(R) 98 system (copyright 1998, Gaussian, Inc.),
 the Gaussian(R) 94 system (copyright 1995, Gaussian, Inc.),
 the Gaussian 92(TM) system (copyright 1992, Gaussian, Inc.),
 the Gaussian 90(TM) system (copyright 1990, Gaussian, Inc.),
 the Gaussian 88(TM) system (copyright 1988, Gaussian, Inc.),
 the Gaussian 86(TM) system (copyright 1986, Carnegie Mellon
 University), and the Gaussian 82(TM) system (copyright 1983,
 Carnegie Mellon University). Gaussian is a federally registered
 trademark of Gaussian, Inc.
  
 This software contains proprietary and confidential information,
 including trade secrets, belonging to Gaussian, Inc.
  
 This software is provided under written license and may be
 used, copied, transmitted, or stored only in accord with that
 written license.
  
 The following legend is applicable only to US Government
 contracts under FAR:
  
                    RESTRICTED RIGHTS LEGEND
  
 Use, reproduction and disclosure by the US Government is
 subject to restrictions as set forth in subparagraphs (a)
 and (c) of the Commercial Computer Software - Restricted
 Rights clause in FAR 52.227-19.
  
 Gaussian, Inc.
 340 Quinnipiac St., Bldg. 40, Wallingford CT 06492
  
  
 ---------------------------------------------------------------
 Warning -- This program may not be used in any manner that
 competes with the business of Gaussian, Inc. or will provide
 assistance to any competitor of Gaussian, Inc.  The licensee
 of this program is prohibited from giving any competitor of
 Gaussian, Inc. access to this program.  By using this program,
 the user acknowledges that Gaussian, Inc. is engaged in the
 business of creating and licensing software in the field of
 computational chemistry and represents and warrants to the
 licensee that it is not a competitor of Gaussian, Inc. and that
 it will not use this program in any manner prohibited above.
 ---------------------------------------------------------------
  

 Cite this work as:
 Gaussian 09, Revision D.01,
 M. J. Frisch, G. W. Trucks, H. B. Schlegel, G. E. Scuseria, 
 M. A. Robb, J. R. Cheeseman, G. Scalmani, V. Barone, B. Mennucci, 
 G. A. Petersson, H. Nakatsuji, M. Caricato, X. Li, H. P. Hratchian, 
 A. F. Izmaylov, J. Bloino, G. Zheng, J. L. Sonnenberg, M. Hada, 
 M. Ehara, K. Toyota, R. Fukuda, J. Hasegawa, M. Ishida, T. Nakajima, 
 Y. Honda, O. Kitao, H. Nakai, T. Vreven, J. A. Montgomery, Jr., 
 J. E. Peralta, F. Ogliaro, M. Bearpark, J. J. Heyd, E. Brothers, 
 K. N. Kudin, V. N. Staroverov, T. Keith, R. Kobayashi, J. Normand, 
 K. Raghavachari, A. Rendell, J. C. Burant, S. S. Iyengar, J. Tomasi, 
 M. Cossi, N. Rega, J. M. Millam, M. Klene, J. E. Knox, J. B. Cross, 
 V. Bakken, C. Adamo, J. Jaramillo, R. Gomperts, R. E. Stratmann, 
 O. Yazyev, A. J. Austin, R. Cammi, C. Pomelli, J. W. Ochterski, 
 R. L. Martin, K. Morokuma, V. G. Zakrzewski, G. A. Voth, 
 P. Salvador, J. J. Dannenberg, S. Dapprich, A. D. Daniels, 
 O. Farkas, J. B. Foresman, J. V. Ortiz, J. Cioslowski, 
 and D. J. Fox, Gaussian, Inc., Wallingford CT, 2013.
 
 ******************************************
 Gaussian 09:  AM64L-G09RevD.01 24-Apr-2013
                23-Jun-2017 
 ******************************************
 %chk=HClSO4-h2o.chk
 Default route:  MaxDisk=70GB
 -----------------------------------------
 # opt freq b3lyp/6-311g geom=connectivity
 -----------------------------------------
 1/14=-1,18=20,19=15,26=3,38=1,57=2/1,3;
 2/9=110,12=2,17=6,18=5,40=1/2;
 3/5=4,6=6,11=2,16=1,25=1,30=1,71=1,74=-5/1,2,3;
 4//1;
 5/5=2,38=5/2;
 6/7=2,8=2,9=2,10=2,28=1/1;
 7//1,2,3,16;
 1/14=-1,18=20,19=15,26=3/3(2);
 2/9=110/2;
 99//99;
 2/9=110/2;
 3/5=4,6=6,11=2,16=1,25=1,30=1,71=1,74=-5/1,2,3;
 4/5=5,16=3,69=1/1;
 5/5=2,38=5/2;
 7//1,2,3,16;
 1/14=-1,18=20,19=15,26=3/3(-5);
 2/9=110/2;
 6/7=2,8=2,9=2,10=2,19=2,28=1/1;
 99/9=1/99;
 -------------------
 Title Card Required
 -------------------
 Symbolic Z-matrix:
 Charge =  0 Multiplicity = 1
 S                    -0.21959   0.34814  -0.18378 
 Cl                   -3.11556   0.28017  -0.32995 
 O                     0.76666   1.31119  -0.59699 
 O                    -1.61933   1.09059  -0.6965 
 O                    -0.36711  -0.1605    1.14582 
 O                    -0.16397  -0.94276  -1.15028 
 H                     0.09137  -0.66301  -2.04344 
 O                    -0.02726   0.73721  -2.06973 
 H                     0.93274   0.73721  -2.06973 
 H                    -0.34771   1.64215  -2.06973 
 
 Add virtual bond connecting atoms O8         and H7         Dist= 2.66D+00.

 GradGradGradGradGradGradGradGradGradGradGradGradGradGradGradGradGradGrad
 Berny optimization.
 Initialization pass.
                           ----------------------------
                           !    Initial Parameters    !
                           ! (Angstroms and Degrees)  !
 --------------------------                            --------------------------
 ! Name  Definition              Value          Derivative Info.                !
 --------------------------------------------------------------------------------
 ! R1    R(1,3)                  1.4391         estimate D2E/DX2                !
 ! R2    R(1,4)                  1.6654         estimate D2E/DX2                !
 ! R3    R(1,5)                  1.4312         estimate D2E/DX2                !
 ! R4    R(1,6)                  1.6136         estimate D2E/DX2                !
 ! R5    R(2,4)                  1.7406         estimate D2E/DX2                !
 ! R6    R(6,7)                  0.9702         estimate D2E/DX2                !
 ! R7    R(7,8)                  1.4055         estimate D2E/DX2                !
 ! R8    R(8,9)                  0.96           estimate D2E/DX2                !
 ! R9    R(8,10)                 0.96           estimate D2E/DX2                !
 ! A1    A(3,1,4)              100.9108         estimate D2E/DX2                !
 ! A2    A(3,1,5)              125.1166         estimate D2E/DX2                !
 ! A3    A(3,1,6)              109.8636         estimate D2E/DX2                !
 ! A4    A(4,1,5)              110.9664         estimate D2E/DX2                !
 ! A5    A(4,1,6)              101.6089         estimate D2E/DX2                !
 ! A6    A(5,1,6)              106.0029         estimate D2E/DX2                !
 ! A7    A(1,4,2)              116.7493         estimate D2E/DX2                !
 ! A8    A(1,6,7)              109.2579         estimate D2E/DX2                !
 ! A9    A(6,7,8)              106.3968         estimate D2E/DX2                !
 ! A10   A(7,8,9)               85.1584         estimate D2E/DX2                !
 ! A11   A(9,8,10)             109.5            estimate D2E/DX2                !
 ! A12   L(7,8,10,9,-1)        194.6584         estimate D2E/DX2                !
 ! A13   L(7,8,10,9,-2)        181.076          estimate D2E/DX2                !
 ! D1    D(3,1,4,2)           -177.4343         estimate D2E/DX2                !
 ! D2    D(5,1,4,2)            -42.9081         estimate D2E/DX2                !
 ! D3    D(6,1,4,2)             69.4328         estimate D2E/DX2                !
 ! D4    D(3,1,6,7)            -32.3861         estimate D2E/DX2                !
 ! D5    D(4,1,6,7)             73.8548         estimate D2E/DX2                !
 ! D6    D(5,1,6,7)           -170.1092         estimate D2E/DX2                !
 ! D7    D(1,6,7,8)            -13.1682         estimate D2E/DX2                !
 ! D8    D(6,7,8,9)            107.4734         estimate D2E/DX2                !
 ! D9    D(7,8,9,10)          -178.924          estimate D2E/DX2                !
 --------------------------------------------------------------------------------
 Trust Radius=3.00D-01 FncErr=1.00D-07 GrdErr=1.00D-06
 Number of steps in this run=     41 maximum allowed number of steps=    100.
 GradGradGradGradGradGradGradGradGradGradGradGradGradGradGradGradGradGrad

                          Input orientation:                          
 ---------------------------------------------------------------------
 Center     Atomic      Atomic             Coordinates (Angstroms)
 Number     Number       Type             X           Y           Z
 ---------------------------------------------------------------------
      1         16           0       -0.219587    0.348140   -0.183782
      2         17           0       -3.115562    0.280168   -0.329948
      3          8           0        0.766660    1.311189   -0.596994
      4          8           0       -1.619333    1.090591   -0.696496
      5          8           0       -0.367115   -0.160500    1.145816
      6          8           0       -0.163974   -0.942758   -1.150275
      7          1           0        0.091368   -0.663009   -2.043436
      8          8           0       -0.027258    0.737213   -2.069734
      9          1           0        0.932743    0.737213   -2.069734
     10          1           0       -0.347712    1.642149   -2.069734
 ---------------------------------------------------------------------
                    Distance matrix (angstroms):
                    1          2          3          4          5
     1  S    0.000000
     2  Cl   2.900458   0.000000
     3  O    1.439059   4.025663   0.000000
     4  O    1.665352   1.740645   2.398234   0.000000
     5  O    1.431192   3.150560   2.547293   2.554876   0.000000
     6  O    1.613573   3.298538   2.500495   2.541357   2.434179
     7  H    2.139493   3.756331   2.538833   2.795686   3.260989
     8  O    1.935248   3.573985   1.768818   2.131985   3.355764
     9  H    2.244116   4.429956   1.589338   2.919546   3.582636
    10  H    2.290784   3.541587   1.876253   1.951158   3.686419
                    6          7          8          9         10
     6  O    0.000000
     7  H    0.970152   0.000000
     8  O    1.920000   1.405484   0.000000
     9  H    2.206920   1.633776   0.960000   0.000000
    10  H    2.749711   2.346750   0.960000   1.567952   0.000000
 Stoichiometry    ClH3O5S
 Framework group  C1[X(ClH3O5S)]
 Deg. of freedom    24
 Full point group                 C1      NOp   1
 Largest Abelian subgroup         C1      NOp   1
 Largest concise Abelian subgroup C1      NOp   1
                         Standard orientation:                         
 ---------------------------------------------------------------------
 Center     Atomic      Atomic             Coordinates (Angstroms)
 Number     Number       Type             X           Y           Z
 ---------------------------------------------------------------------
      1         16           0        0.577442    0.481447   -0.089890
      2         17           0       -2.234389   -0.219019    0.035046
      3          8           0        1.677032    0.009574   -0.889345
      4          8           0       -0.652833   -0.499296   -0.635751
      5          8           0        0.146786    1.843622   -0.004293
      6          8           0        0.747722   -0.027713    1.431747
      7          1           0        1.186604   -0.892917    1.432435
      8          8           0        1.153263   -1.355760    0.105766
      9          1           0        2.093518   -1.162131    0.100423
     10          1           0        0.889644   -1.688190   -0.755394
 ---------------------------------------------------------------------
 Rotational constants (GHZ):      3.2260315      1.5352456      1.3448412
 Standard basis: 6-311G (5D, 7F)
 There are   116 symmetry adapted cartesian basis functions of A   symmetry.
 There are   116 symmetry adapted basis functions of A   symmetry.
   116 basis functions,   228 primitive gaussians,   116 cartesian basis functions
    38 alpha electrons       38 beta electrons
       nuclear repulsion energy       584.1964840431 Hartrees.



 Warning!  S  atom    1 may be hypervalent but has no d functions.



 NAtoms=   10 NActive=   10 NUniq=   10 SFac= 1.00D+00 NAtFMM=   60 NAOKFM=F Big=F
 Integral buffers will be    131072 words long.
 Raffenetti 2 integral format.
 Two-electron integral symmetry is turned on.
 One-electron integrals computed using PRISM.
 NBasis=   116 RedAO= T EigKep=  6.26D-03  NBF=   116
 NBsUse=   116 1.00D-06 EigRej= -1.00D+00 NBFU=   116
 ExpMin= 7.71D-02 ExpMax= 1.06D+05 ExpMxC= 3.62D+03 IAcc=2 IRadAn=         4 AccDes= 0.00D+00
 Harris functional with IExCor=  402 and IRadAn=       4 diagonalized for initial guess.
 HarFok:  IExCor=  402 AccDes= 0.00D+00 IRadAn=         4 IDoV= 1 UseB2=F ITyADJ=14
 ICtDFT=  3500011 ScaDFX=  1.000000  1.000000  1.000000  1.000000
 FoFCou: FMM=F IPFlag=           0 FMFlag=      100000 FMFlg1=           0
         NFxFlg=           0 DoJE=T BraDBF=F KetDBF=T FulRan=T
         wScrn=  0.000000 ICntrl=     500 IOpCl=  0 I1Cent=   200000004 NGrid=           0
         NMat0=    1 NMatS0=      1 NMatT0=    0 NMatD0=    1 NMtDS0=    0 NMtDT0=    0
 Petite list used in FoFCou.
 Keep R1 ints in memory in canonical form, NReq=24029036.
 Requested convergence on RMS density matrix=1.00D-08 within 128 cycles.
 Requested convergence on MAX density matrix=1.00D-06.
 Requested convergence on             energy=1.00D-06.
 No special actions if energy rises.
 Integral accuracy reduced to 1.0D-05 until final iterations.
 EnCoef did     2 forward-backward iterations
 EnCoef did     2 forward-backward iterations
 Initial convergence to 1.0D-05 achieved.  Increase integral accuracy.
 SCF Done:  E(RB3LYP) =  -1235.70274177     A.U. after   19 cycles
            NFock= 19  Conv=0.57D-08     -V/T= 1.9994

 **********************************************************************

            Population analysis using the SCF density.

 **********************************************************************

 Orbital symmetries:
       Occupied  (A) (A) (A) (A) (A) (A) (A) (A) (A) (A) (A) (A)
                 (A) (A) (A) (A) (A) (A) (A) (A) (A) (A) (A) (A)
                 (A) (A) (A) (A) (A) (A) (A) (A) (A) (A) (A) (A)
                 (A) (A)
       Virtual   (A) (A) (A) (A) (A) (A) (A) (A) (A) (A) (A) (A)
                 (A) (A) (A) (A) (A) (A) (A) (A) (A) (A) (A) (A)
                 (A) (A) (A) (A) (A) (A) (A) (A) (A) (A) (A) (A)
                 (A) (A) (A) (A) (A) (A) (A) (A) (A) (A) (A) (A)
                 (A) (A) (A) (A) (A) (A) (A) (A) (A) (A) (A) (A)
                 (A) (A) (A) (A) (A) (A) (A) (A) (A) (A) (A) (A)
                 (A) (A) (A) (A) (A) (A)
 The electronic state is 1-A.
 Alpha  occ. eigenvalues -- -101.64051 -89.19784 -19.24716 -19.18086 -19.17817
 Alpha  occ. eigenvalues --  -19.16296 -19.15065  -9.55161  -8.28277  -7.32240
 Alpha  occ. eigenvalues --   -7.30337  -7.30268  -6.24464  -6.24145  -6.24110
 Alpha  occ. eigenvalues --   -1.31387  -1.17582  -1.12387  -1.11768  -1.05737
 Alpha  occ. eigenvalues --   -0.87287  -0.72655  -0.65661  -0.65172  -0.59175
 Alpha  occ. eigenvalues --   -0.57751  -0.51472  -0.47790  -0.45471  -0.44665
 Alpha  occ. eigenvalues --   -0.42236  -0.38144  -0.37613  -0.37053  -0.35712
 Alpha  occ. eigenvalues --   -0.34863  -0.33255  -0.27165
 Alpha virt. eigenvalues --   -0.14843  -0.03745  -0.00128   0.01991   0.05638
 Alpha virt. eigenvalues --    0.06876   0.09596   0.15819   0.16376   0.17583
 Alpha virt. eigenvalues --    0.22250   0.24686   0.27563   0.28551   0.32891
 Alpha virt. eigenvalues --    0.36062   0.42850   0.45985   0.66183   0.69168
 Alpha virt. eigenvalues --    0.69578   0.72316   0.76865   0.79401   0.81511
 Alpha virt. eigenvalues --    0.84993   0.87489   0.89882   0.91168   0.95189
 Alpha virt. eigenvalues --    1.00353   1.01724   1.05062   1.09217   1.19450
 Alpha virt. eigenvalues --    1.24544   1.30168   1.32476   1.44081   1.48416
 Alpha virt. eigenvalues --    1.72197   1.74992   2.06041   2.07071   2.12334
 Alpha virt. eigenvalues --    2.15033   2.20258   2.26796   4.66732   4.69893
 Alpha virt. eigenvalues --    4.70468   4.72939   4.73347   4.77183   4.77553
 Alpha virt. eigenvalues --    4.80229   4.85960   4.86418   4.87983   4.90684
 Alpha virt. eigenvalues --    4.92553   5.03568   5.09158   7.47001   9.36445
 Alpha virt. eigenvalues --   17.00243  17.05176  17.31695  25.34397  25.36841
 Alpha virt. eigenvalues --   25.66596  49.65988  49.71352  49.74628  49.77328
 Alpha virt. eigenvalues --   49.88759 188.58075 215.29393
          Condensed to atoms (all electrons):
               1          2          3          4          5          6
     1  S   14.404736  -0.050562  -0.011411   0.004224   0.181660   0.015242
     2  Cl  -0.050562  16.728337   0.003014   0.018558   0.005321   0.002774
     3  O   -0.011411   0.003014   9.287987  -0.065986  -0.055248  -0.081642
     4  O    0.004224   0.018558  -0.065986   8.857673  -0.064980  -0.063108
     5  O    0.181660   0.005321  -0.055248  -0.064980   8.487533  -0.073167
     6  O    0.015242   0.002774  -0.081642  -0.063108  -0.073167   8.792118
     7  H   -0.038713  -0.000303   0.019700   0.002326   0.002485   0.230546
     8  O   -0.021607   0.006778  -0.467164  -0.104752   0.006793  -0.238393
     9  H   -0.015665  -0.000785  -0.001588   0.004360  -0.001247   0.011429
    10  H   -0.015583  -0.001318   0.009035   0.007751   0.000754   0.014083
               7          8          9         10
     1  S   -0.038713  -0.021607  -0.015665  -0.015583
     2  Cl  -0.000303   0.006778  -0.000785  -0.001318
     3  O    0.019700  -0.467164  -0.001588   0.009035
     4  O    0.002326  -0.104752   0.004360   0.007751
     5  O    0.002485   0.006793  -0.001247   0.000754
     6  O    0.230546  -0.238393   0.011429   0.014083
     7  H    0.322310  -0.001146  -0.003202   0.002247
     8  O   -0.001146   9.308071   0.199269   0.212059
     9  H   -0.003202   0.199269   0.361037  -0.004371
    10  H    0.002247   0.212059  -0.004371   0.293268
 Mulliken charges:
               1
     1  S    1.547680
     2  Cl   0.288188
     3  O   -0.636697
     4  O   -0.596067
     5  O   -0.489903
     6  O   -0.609884
     7  H    0.463752
     8  O   -0.899908
     9  H    0.450763
    10  H    0.482075
 Sum of Mulliken charges =   0.00000
 Mulliken charges with hydrogens summed into heavy atoms:
               1
     1  S    1.547680
     2  Cl   0.288188
     3  O   -0.636697
     4  O   -0.596067
     5  O   -0.489903
     6  O   -0.146132
     8  O    0.032930
 Electronic spatial extent (au):  <R**2>=            909.3537
 Charge=              0.0000 electrons
 Dipole moment (field-independent basis, Debye):
    X=              0.7190    Y=             -3.4618    Z=              0.2611  Tot=              3.5453
 Quadrupole moment (field-independent basis, Debye-Ang):
   XX=            -48.4993   YY=            -58.4817   ZZ=            -58.2928
   XY=             -4.4369   XZ=              2.0866   YZ=             -0.0887
 Traceless Quadrupole moment (field-independent basis, Debye-Ang):
   XX=              6.5920   YY=             -3.3905   ZZ=             -3.2015
   XY=             -4.4369   XZ=              2.0866   YZ=             -0.0887
 Octapole moment (field-independent basis, Debye-Ang**2):
  XXX=             -2.8863  YYY=            -17.1206  ZZZ=             -1.4217  XYY=              6.4010
  XXY=             -9.0682  XXZ=             13.3148  XZZ=             -0.5152  YZZ=             -6.8580
  YYZ=             -3.3056  XYZ=              0.0155
 Hexadecapole moment (field-independent basis, Debye-Ang**3):
 XXXX=           -571.7414 YYYY=           -299.5508 ZZZZ=           -182.7112 XXXY=            -26.8209
 XXXZ=              6.6911 YYYX=             -8.4482 YYYZ=              9.5927 ZZZX=              4.5951
 ZZZY=             -5.9859 XXYY=           -145.6870 XXZZ=           -140.0642 YYZZ=            -67.8209
 XXYZ=             -0.5726 YYXZ=             -2.3038 ZZXY=            -10.0810
 N-N= 5.841964840431D+02 E-N=-4.099761996735D+03  KE= 1.236404872674D+03
 Calling FoFJK, ICntrl=      2127 FMM=F ISym2X=0 I1Cent= 0 IOpClX= 0 NMat=1 NMatS=1 NMatT=0.
 ***** Axes restored to original set *****
 -------------------------------------------------------------------
 Center     Atomic                   Forces (Hartrees/Bohr)
 Number     Number              X              Y              Z
 -------------------------------------------------------------------
      1       16          -0.027447338   -0.057914575    0.027191392
      2       17          -0.034812352   -0.013504160    0.007219812
      3        8           0.205172451    0.179149920    0.186174297
      4        8          -0.063980389    0.055709731   -0.006304206
      5        8          -0.015678986   -0.052514421    0.150171416
      6        8           0.004660164   -0.162357910    0.033578209
      7        1          -0.023916664   -0.027840566   -0.012597941
      8        8          -0.049911155    0.050694876   -0.325004610
      9        1           0.008168463    0.020196462   -0.029083971
     10        1          -0.002254194    0.008380645   -0.031344396
 -------------------------------------------------------------------
 Cartesian Forces:  Max     0.325004610 RMS     0.098322405

 GradGradGradGradGradGradGradGradGradGradGradGradGradGradGradGradGradGrad
 Berny optimization.
 FormGI is forming the generalized inverse of G from B-inverse, IUseBI=4.
 Internal  Forces:  Max     1.137984499 RMS     0.310011059
 Search for a local minimum.
 Step number   1 out of a maximum of   41
 All quantities printed in internal units (Hartrees-Bohrs-Radians)
 Mixed Optimization -- RFO/linear search
 Second derivative matrix not updated -- first step.
 ITU=  0
     Eigenvalues ---    0.00230   0.01423   0.01558   0.01754   0.02439
     Eigenvalues ---    0.06372   0.14178   0.15158   0.15853   0.16000
     Eigenvalues ---    0.16000   0.16765   0.21284   0.25000   0.25000
     Eigenvalues ---    0.25000   0.31411   0.40406   0.48680   0.53346
     Eigenvalues ---    0.55473   0.55473   1.00995   1.04853
 RFO step:  Lambda=-1.62211029D+00 EMin= 2.30000000D-03
 Linear search not attempted -- first point.
 Maximum step size (   0.300) exceeded in Quadratic search.
    -- Step size scaled by   0.338
 Iteration  1 RMS(Cart)=  0.29289811 RMS(Int)=  0.01912507
 Iteration  2 RMS(Cart)=  0.07315853 RMS(Int)=  0.00109125
 Iteration  3 RMS(Cart)=  0.00190309 RMS(Int)=  0.00015503
 Iteration  4 RMS(Cart)=  0.00000118 RMS(Int)=  0.00015503
 Iteration  5 RMS(Cart)=  0.00000000 RMS(Int)=  0.00015503
 Variable       Old X    -DE/DX   Delta X   Delta X   Delta X     New X
                                 (Linear)    (Quad)   (Total)
    R1        2.71943   0.20704   0.00000   0.02662   0.02662   2.74605
    R2        3.14706   0.10159   0.00000   0.01697   0.01697   3.16403
    R3        2.70456   0.15979   0.00000   0.02025   0.02025   2.72481
    R4        3.04921   0.30491   0.00000   0.04893   0.04893   3.09814
    R5        3.28934   0.03771   0.00000   0.00659   0.00659   3.29593
    R6        1.83332   0.36340   0.00000   0.05705   0.05705   1.89037
    R7        2.65598   0.08987   0.00000   0.01724   0.01724   2.67322
    R8        1.81414   0.00817   0.00000   0.00127   0.00127   1.81541
    R9        1.81414   0.00865   0.00000   0.00134   0.00134   1.81548
    A1        1.76123   0.06385   0.00000   0.01249   0.01200   1.77323
    A2        2.18370  -0.16923   0.00000  -0.03200  -0.03189   2.15181
    A3        1.91748   0.26446   0.00000   0.04970   0.04950   1.96698
    A4        1.93673  -0.02927   0.00000  -0.00600  -0.00608   1.93065
    A5        1.77341   0.04146   0.00000   0.00813   0.00786   1.78127
    A6        1.85010  -0.12175   0.00000  -0.02289  -0.02285   1.82725
    A7        2.03766   0.01497   0.00000   0.00271   0.00271   2.04037
    A8        1.90691   1.13798   0.00000   0.21610   0.21610   2.12301
    A9        1.85697   0.98089   0.00000   0.17731   0.17731   2.03428
   A10        1.48629   0.02439   0.00000   0.00470   0.00470   1.49099
   A11        1.91114  -0.01282   0.00000  -0.00237  -0.00237   1.90876
   A12        3.39743   0.01157   0.00000   0.00232   0.00232   3.39975
   A13        3.16037  -0.02680   0.00000  -0.00554  -0.00554   3.15483
    D1       -3.09681   0.16730   0.00000   0.03162   0.03174  -3.06507
    D2       -0.74889  -0.01699   0.00000  -0.00323  -0.00323  -0.75212
    D3        1.21183  -0.14575   0.00000  -0.02746  -0.02757   1.18427
    D4       -0.56524  -0.21657   0.00000  -0.04315  -0.04362  -0.60887
    D5        1.28901  -0.04319   0.00000  -0.00988  -0.00955   1.27945
    D6       -2.96897  -0.10300   0.00000  -0.02153  -0.02138  -2.99035
    D7       -0.22983  -0.41935   0.00000  -0.08673  -0.08673  -0.31655
    D8        1.87576   0.03753   0.00000   0.00782   0.00782   1.88358
    D9       -3.12281  -0.02680   0.00000  -0.00554  -0.00554  -3.12835
         Item               Value     Threshold  Converged?
 Maximum Force            1.137984     0.000450     NO 
 RMS     Force            0.310011     0.000300     NO 
 Maximum Displacement     1.151383     0.001800     NO 
 RMS     Displacement     0.359881     0.001200     NO 
 Predicted change in Energy=-5.385223D-01
 GradGradGradGradGradGradGradGradGradGradGradGradGradGradGradGradGradGrad

                          Input orientation:                          
 ---------------------------------------------------------------------
 Center     Atomic      Atomic             Coordinates (Angstroms)
 Number     Number       Type             X           Y           Z
 ---------------------------------------------------------------------
      1         16           0       -0.258164    0.331885    0.050961
      2         17           0       -3.155494    0.269602   -0.248745
      3          8           0        0.745656    1.371383   -0.102091
      4          8           0       -1.652450    1.141169   -0.401155
      5          8           0       -0.467110   -0.391649    1.280568
      6          8           0       -0.147242   -0.829278   -1.101098
      7          1           0        0.126353   -0.613665   -2.038830
      8          8           0        0.029149    0.742284   -2.430072
      9          1           0        0.989174    0.741371   -2.394837
     10          1           0       -0.279640    1.617293   -2.679020
 ---------------------------------------------------------------------
                    Distance matrix (angstroms):
                    1          2          3          4          5
     1  S    0.000000
     2  Cl   2.913456   0.000000
     3  O    1.453146   4.056402   0.000000
     4  O    1.674331   1.744132   2.427622   0.000000
     5  O    1.441907   3.162825   2.547710   2.565688   0.000000
     6  O    1.639465   3.314155   2.576468   2.576477   2.442574
     7  H    2.325757   3.841235   2.841638   2.987568   3.379334
     8  O    2.531107   3.888903   2.515680   2.665219   3.911640
     9  H    2.775871   4.691114   2.390167   3.333585   4.112554
    10  H    3.017537   3.999131   2.784289   2.701846   4.444022
                    6          7          8          9         10
     6  O    0.000000
     7  H    1.000342   0.000000
     8  O    2.065694   1.414608   0.000000
     9  H    2.330696   1.645395   0.960672   0.000000
    10  H    2.914288   2.356236   0.960711   1.567765   0.000000
 Stoichiometry    ClH3O5S
 Framework group  C1[X(ClH3O5S)]
 Deg. of freedom    24
 Full point group                 C1      NOp   1
 Largest Abelian subgroup         C1      NOp   1
 Largest concise Abelian subgroup C1      NOp   1
                         Standard orientation:                         
 ---------------------------------------------------------------------
 Center     Atomic      Atomic             Coordinates (Angstroms)
 Number     Number       Type             X           Y           Z
 ---------------------------------------------------------------------
      1         16           0        0.494463    0.635316   -0.053813
      2         17           0       -2.218021   -0.425158    0.023976
      3          8           0        1.573798    0.563754   -1.024147
      4          8           0       -0.670453   -0.327506   -0.774457
      5          8           0       -0.082003    1.877134    0.398591
      6          8           0        0.823277   -0.195637    1.320684
      7          1           0        1.349104   -1.046511    1.306404
      8          8           0        1.454440   -1.703994    0.058311
      9          1           0        2.368603   -1.408825    0.066777
     10          1           0        1.284777   -2.192050   -0.751617
 ---------------------------------------------------------------------
 Rotational constants (GHZ):      2.5782510      1.4862385      1.2104064
 Standard basis: 6-311G (5D, 7F)
 There are   116 symmetry adapted cartesian basis functions of A   symmetry.
 There are   116 symmetry adapted basis functions of A   symmetry.
   116 basis functions,   228 primitive gaussians,   116 cartesian basis functions
    38 alpha electrons       38 beta electrons
       nuclear repulsion energy       553.7919590818 Hartrees.



 Warning!  S  atom    1 may be hypervalent but has no d functions.



 NAtoms=   10 NActive=   10 NUniq=   10 SFac= 1.00D+00 NAtFMM=   60 NAOKFM=F Big=F
 Integral buffers will be    131072 words long.
 Raffenetti 2 integral format.
 Two-electron integral symmetry is turned on.
 One-electron integrals computed using PRISM.
 NBasis=   116 RedAO= T EigKep=  7.15D-03  NBF=   116
 NBsUse=   116 1.00D-06 EigRej= -1.00D+00 NBFU=   116
 Initial guess from the checkpoint file:  "HClSO4-h2o.chk"
 B after Tr=     0.000000    0.000000    0.000000
         Rot=    0.995509   -0.081551   -0.009985   -0.047021 Ang= -10.86 deg.
 ExpMin= 7.71D-02 ExpMax= 1.06D+05 ExpMxC= 3.62D+03 IAcc=2 IRadAn=         4 AccDes= 0.00D+00
 Harris functional with IExCor=  402 and IRadAn=       4 diagonalized for initial guess.
 HarFok:  IExCor=  402 AccDes= 0.00D+00 IRadAn=         4 IDoV= 1 UseB2=F ITyADJ=14
 ICtDFT=  3500011 ScaDFX=  1.000000  1.000000  1.000000  1.000000
 FoFCou: FMM=F IPFlag=           0 FMFlag=      100000 FMFlg1=           0
         NFxFlg=           0 DoJE=T BraDBF=F KetDBF=T FulRan=T
         wScrn=  0.000000 ICntrl=     500 IOpCl=  0 I1Cent=   200000004 NGrid=           0
         NMat0=    1 NMatS0=      1 NMatT0=    0 NMatD0=    1 NMtDS0=    0 NMtDT0=    0
 Petite list used in FoFCou.
 Keep R1 ints in memory in canonical form, NReq=24029036.
 Requested convergence on RMS density matrix=1.00D-08 within 128 cycles.
 Requested convergence on MAX density matrix=1.00D-06.
 Requested convergence on             energy=1.00D-06.
 No special actions if energy rises.
 Integral accuracy reduced to 1.0D-05 until final iterations.
 Initial convergence to 1.0D-05 achieved.  Increase integral accuracy.
 SCF Done:  E(RB3LYP) =  -1235.91519425     A.U. after   16 cycles
            NFock= 16  Conv=0.81D-08     -V/T= 2.0006
 Calling FoFJK, ICntrl=      2127 FMM=F ISym2X=0 I1Cent= 0 IOpClX= 0 NMat=1 NMatS=1 NMatT=0.
 ***** Axes restored to original set *****
 -------------------------------------------------------------------
 Center     Atomic                   Forces (Hartrees/Bohr)
 Number     Number              X              Y              Z
 -------------------------------------------------------------------
      1       16          -0.011050820   -0.038320116   -0.054223639
      2       17          -0.036637321   -0.017309864    0.002008486
      3        8           0.096783545    0.101086617   -0.006063562
      4        8          -0.032832127    0.056001338   -0.020912305
      5        8          -0.020377154   -0.069254440    0.123719932
      6        8           0.008155348   -0.104970402    0.009933935
      7        1          -0.029261712   -0.007608614    0.022023379
      8        8           0.016828657    0.056100528   -0.064182866
      9        1           0.016288178    0.018647199   -0.003779466
     10        1          -0.007896593    0.005627754   -0.008523894
 -------------------------------------------------------------------
 Cartesian Forces:  Max     0.123719932 RMS     0.048954244

 GradGradGradGradGradGradGradGradGradGradGradGradGradGradGradGradGradGrad
 Berny optimization.
 Using GEDIIS/GDIIS optimizer.
 FormGI is forming the generalized inverse of G from B-inverse, IUseBI=4.
 Internal  Forces:  Max     0.155118655 RMS     0.054725305
 Search for a local minimum.
 Step number   2 out of a maximum of   41
 All quantities printed in internal units (Hartrees-Bohrs-Radians)
 Mixed Optimization -- RFO/linear search
 Update second derivatives using D2CorX and points    1    2
 DE= -2.12D-01 DEPred=-5.39D-01 R= 3.95D-01
 Trust test= 3.95D-01 RLast= 3.19D-01 DXMaxT set to 3.00D-01
 ITU=  0  0
 Use linear search instead of GDIIS.
     Eigenvalues ---    0.00230   0.01522   0.01561   0.01754   0.02487
     Eigenvalues ---    0.06371   0.14133   0.15304   0.15391   0.15996
     Eigenvalues ---    0.16869   0.20249   0.21546   0.24998   0.25000
     Eigenvalues ---    0.31387   0.40144   0.45973   0.51503   0.55465
     Eigenvalues ---    0.55473   0.97357   1.03828   4.92017
 RFO step:  Lambda=-2.46633299D-01 EMin= 2.30132812D-03
 Quartic linear search produced a step of  0.91761.
 Maximum step size (   0.300) exceeded in Quadratic search.
    -- Step size scaled by   0.437
 Iteration  1 RMS(Cart)=  0.26723496 RMS(Int)=  0.02390364
 Iteration  2 RMS(Cart)=  0.10765149 RMS(Int)=  0.00276809
 Iteration  3 RMS(Cart)=  0.00412104 RMS(Int)=  0.00019474
 Iteration  4 RMS(Cart)=  0.00000374 RMS(Int)=  0.00019473
 Iteration  5 RMS(Cart)=  0.00000000 RMS(Int)=  0.00019473
 Variable       Old X    -DE/DX   Delta X   Delta X   Delta X     New X
                                 (Linear)    (Quad)   (Total)
    R1        2.74605   0.13982   0.02443   0.07182   0.09625   2.84230
    R2        3.16403   0.08163   0.01557   0.09120   0.10677   3.27079
    R3        2.72481   0.14321   0.01858   0.07623   0.09481   2.81962
    R4        3.09814   0.05440   0.04490   0.02346   0.06835   3.16649
    R5        3.29593   0.04039   0.00605   0.05483   0.06087   3.35681
    R6        1.89037   0.06564   0.05235   0.02541   0.07776   1.96813
    R7        2.67322   0.09647   0.01582   0.19334   0.20916   2.88238
    R8        1.81541   0.01611   0.00117   0.01574   0.01691   1.83232
    R9        1.81548   0.00988   0.00123   0.00921   0.01045   1.82593
    A1        1.77323  -0.00205   0.01101  -0.01255  -0.00219   1.77104
    A2        2.15181  -0.00685  -0.02926   0.01083  -0.01837   2.13344
    A3        1.96698   0.00868   0.04542  -0.02149   0.02368   1.99066
    A4        1.93065  -0.00215  -0.00558   0.00040  -0.00528   1.92537
    A5        1.78127   0.00569   0.00722   0.00452   0.01139   1.79267
    A6        1.82725  -0.00111  -0.02097   0.01651  -0.00440   1.82284
    A7        2.04037   0.01224   0.00248   0.01840   0.02089   2.06125
    A8        2.12301   0.04130   0.19829  -0.08470   0.11359   2.23659
    A9        2.03428   0.15512   0.16270   0.12124   0.28394   2.31822
   A10        1.49099   0.02631   0.00431   0.05591   0.06022   1.55121
   A11        1.90876  -0.00839  -0.00218  -0.00964  -0.01182   1.89695
   A12        3.39975   0.01792   0.00213   0.04627   0.04840   3.44815
   A13        3.15483  -0.00554  -0.00508  -0.01326  -0.01834   3.13650
    D1       -3.06507   0.00706   0.02913  -0.01117   0.01803  -3.04704
    D2       -0.75212  -0.00420  -0.00297  -0.00629  -0.00921  -0.76134
    D3        1.18427  -0.00349  -0.02529   0.01473  -0.01069   1.17358
    D4       -0.60887  -0.00635  -0.04003   0.01749  -0.02312  -0.63198
    D5        1.27945  -0.00265  -0.00877  -0.00233  -0.01068   1.26877
    D6       -2.99035  -0.00318  -0.01962   0.00583  -0.01362  -3.00397
    D7       -0.31655  -0.01304  -0.07958   0.02635  -0.05323  -0.36979
    D8        1.88358  -0.00476   0.00717  -0.02207  -0.01489   1.86869
    D9       -3.12835  -0.00554  -0.00508  -0.01326  -0.01834   3.13650
         Item               Value     Threshold  Converged?
 Maximum Force            0.155119     0.000450     NO 
 RMS     Force            0.054725     0.000300     NO 
 Maximum Displacement     1.196267     0.001800     NO 
 RMS     Displacement     0.365950     0.001200     NO 
 Predicted change in Energy=-9.684539D-02
 GradGradGradGradGradGradGradGradGradGradGradGradGradGradGradGradGradGrad

                          Input orientation:                          
 ---------------------------------------------------------------------
 Center     Atomic      Atomic             Coordinates (Angstroms)
 Number     Number       Type             X           Y           Z
 ---------------------------------------------------------------------
      1         16           0       -0.300030    0.285793    0.276762
      2         17           0       -3.283003    0.275465   -0.109683
      3          8           0        0.720030    1.390575    0.311227
      4          8           0       -1.743605    1.161816   -0.103297
      5          8           0       -0.533884   -0.618174    1.440574
      6          8           0       -0.141771   -0.749442   -1.031289
      7          1           0        0.141350   -0.515896   -2.005967
      8          8           0        0.133393    0.783434   -2.804836
      9          1           0        1.099244    0.815674   -2.725753
     10          1           0       -0.161491    1.551151   -3.312057
 ---------------------------------------------------------------------
                    Distance matrix (angstroms):
                    1          2          3          4          5
     1  S    0.000000
     2  Cl   3.007918   0.000000
     3  O    1.504080   4.176711   0.000000
     4  O    1.730829   1.776346   2.508717   0.000000
     5  O    1.492080   3.280174   2.623509   2.648646   0.000000
     6  O    1.675635   3.430325   2.669218   2.660817   2.506210
     7  H    2.459344   3.993538   3.055960   3.160369   3.513551
     8  O    3.151468   4.381056   3.228408   3.311286   4.520317
     9  H    3.354674   5.132226   3.114091   3.883154   4.699075
    10  H    3.807879   4.650421   3.732433   3.598723   5.237570
                    6          7          8          9         10
     6  O    0.000000
     7  H    1.041489   0.000000
     8  O    2.360274   1.525291   0.000000
     9  H    2.619335   1.791293   0.969620   0.000000
    10  H    3.239602   2.463791   0.966240   1.572938   0.000000
 Stoichiometry    ClH3O5S
 Framework group  C1[X(ClH3O5S)]
 Deg. of freedom    24
 Full point group                 C1      NOp   1
 Largest Abelian subgroup         C1      NOp   1
 Largest concise Abelian subgroup C1      NOp   1
                         Standard orientation:                         
 ---------------------------------------------------------------------
 Center     Atomic      Atomic             Coordinates (Angstroms)
 Number     Number       Type             X           Y           Z
 ---------------------------------------------------------------------
      1         16           0        0.333663    0.804795   -0.031575
      2         17           0       -2.194177   -0.824509    0.022878
      3          8           0        1.332402    1.101748   -1.116285
      4          8           0       -0.733551   -0.293903   -0.837606
      5          8           0       -0.446367    1.879880    0.648166
      6          8           0        0.942902   -0.125605    1.221795
      7          1           0        1.630698   -0.905847    1.168332
      8          8           0        2.071461   -1.823457    0.032447
      9          1           0        2.911880   -1.341352   -0.005396
     10          1           0        2.085054   -2.522167   -0.634815
 ---------------------------------------------------------------------
 Rotational constants (GHZ):      2.0498523      1.3480748      1.0225218
 Standard basis: 6-311G (5D, 7F)
 There are   116 symmetry adapted cartesian basis functions of A   symmetry.
 There are   116 symmetry adapted basis functions of A   symmetry.
   116 basis functions,   228 primitive gaussians,   116 cartesian basis functions
    38 alpha electrons       38 beta electrons
       nuclear repulsion energy       520.9972729699 Hartrees.



 Warning!  S  atom    1 may be hypervalent but has no d functions.



 NAtoms=   10 NActive=   10 NUniq=   10 SFac= 1.00D+00 NAtFMM=   60 NAOKFM=F Big=F
 Integral buffers will be    131072 words long.
 Raffenetti 2 integral format.
 Two-electron integral symmetry is turned on.
 One-electron integrals computed using PRISM.
 NBasis=   116 RedAO= T EigKep=  9.37D-03  NBF=   116
 NBsUse=   116 1.00D-06 EigRej= -1.00D+00 NBFU=   116
 Initial guess from the checkpoint file:  "HClSO4-h2o.chk"
 B after Tr=     0.000000    0.000000    0.000000
         Rot=    0.995298   -0.035184   -0.013023   -0.089296 Ang= -11.12 deg.
 ExpMin= 7.71D-02 ExpMax= 1.06D+05 ExpMxC= 3.62D+03 IAcc=2 IRadAn=         4 AccDes= 0.00D+00
 Harris functional with IExCor=  402 and IRadAn=       4 diagonalized for initial guess.
 HarFok:  IExCor=  402 AccDes= 0.00D+00 IRadAn=         4 IDoV= 1 UseB2=F ITyADJ=14
 ICtDFT=  3500011 ScaDFX=  1.000000  1.000000  1.000000  1.000000
 FoFCou: FMM=F IPFlag=           0 FMFlag=      100000 FMFlg1=           0
         NFxFlg=           0 DoJE=T BraDBF=F KetDBF=T FulRan=T
         wScrn=  0.000000 ICntrl=     500 IOpCl=  0 I1Cent=   200000004 NGrid=           0
         NMat0=    1 NMatS0=      1 NMatT0=    0 NMatD0=    1 NMtDS0=    0 NMtDT0=    0
 Petite list used in FoFCou.
 Keep R1 ints in memory in canonical form, NReq=24029036.
 Requested convergence on RMS density matrix=1.00D-08 within 128 cycles.
 Requested convergence on MAX density matrix=1.00D-06.
 Requested convergence on             energy=1.00D-06.
 No special actions if energy rises.
 Integral accuracy reduced to 1.0D-05 until final iterations.
 Initial convergence to 1.0D-05 achieved.  Increase integral accuracy.
 SCF Done:  E(RB3LYP) =  -1235.98380160     A.U. after   17 cycles
            NFock= 17  Conv=0.36D-08     -V/T= 2.0013
 Calling FoFJK, ICntrl=      2127 FMM=F ISym2X=0 I1Cent= 0 IOpClX= 0 NMat=1 NMatS=1 NMatT=0.
 ***** Axes restored to original set *****
 -------------------------------------------------------------------
 Center     Atomic                   Forces (Hartrees/Bohr)
 Number     Number              X              Y              Z
 -------------------------------------------------------------------
      1       16           0.002123109   -0.019514166   -0.039157196
      2       17          -0.020308013   -0.011742497   -0.000220737
      3        8           0.052083272    0.058969037   -0.002304324
      4        8          -0.021268790    0.040055423   -0.012549422
      5        8          -0.013220179   -0.049702578    0.064467357
      6        8           0.012172748   -0.048820746   -0.027388078
      7        1          -0.030151158    0.013196924    0.037554256
      8        8           0.021718607    0.009000548   -0.016065485
      9        1           0.006066170    0.010191863   -0.002313133
     10        1          -0.009215765   -0.001633809   -0.002023236
 -------------------------------------------------------------------
 Cartesian Forces:  Max     0.064467357 RMS     0.028579458

 GradGradGradGradGradGradGradGradGradGradGradGradGradGradGradGradGradGrad
 Berny optimization.
 Using GEDIIS/GDIIS optimizer.
 FormGI is forming the generalized inverse of G from B-inverse, IUseBI=4.
 Internal  Forces:  Max     0.082471374 RMS     0.025813258
 Search for a local minimum.
 Step number   3 out of a maximum of   41
 All quantities printed in internal units (Hartrees-Bohrs-Radians)
 Mixed Optimization -- RFO/linear search
 Update second derivatives using D2CorX and points    2    3
 DE= -6.86D-02 DEPred=-9.68D-02 R= 7.08D-01
 TightC=F SS=  1.41D+00  RLast= 4.41D-01 DXNew= 5.0454D-01 1.3229D+00
 Trust test= 7.08D-01 RLast= 4.41D-01 DXMaxT set to 5.05D-01
 ITU=  1  0  0
 Use linear search instead of GDIIS.
 Linear search step of   0.871 exceeds DXMaxT=   0.505 but not scaled.
 Quartic linear search produced a step of  2.00000.
 Iteration  1 RMS(Cart)=  0.36823224 RMS(Int)=  0.08347493
 Iteration  2 RMS(Cart)=  0.20788246 RMS(Int)=  0.04320876
 Iteration  3 RMS(Cart)=  0.14188684 RMS(Int)=  0.00919902
 Iteration  4 RMS(Cart)=  0.02124588 RMS(Int)=  0.00037897
 Iteration  5 RMS(Cart)=  0.00046154 RMS(Int)=  0.00032062
 Iteration  6 RMS(Cart)=  0.00000003 RMS(Int)=  0.00032062
 Variable       Old X    -DE/DX   Delta X   Delta X   Delta X     New X
                                 (Linear)    (Quad)   (Total)
    R1        2.84230   0.07858   0.19250   0.00000   0.19250   3.03480
    R2        3.27079   0.05181   0.21353   0.00000   0.21353   3.48433
    R3        2.81962   0.08247   0.18963   0.00000   0.18963   3.00925
    R4        3.16649   0.01919   0.13671   0.00000   0.13671   3.30320
    R5        3.35681   0.02346   0.12175   0.00000   0.12175   3.47856
    R6        1.96813  -0.01230   0.15551   0.00000   0.15551   2.12364
    R7        2.88238   0.02556   0.41832   0.00000   0.41832   3.30070
    R8        1.83232   0.00620   0.03382   0.00000   0.03382   1.86613
    R9        1.82593   0.00258   0.02089   0.00000   0.02089   1.84682
    A1        1.77104  -0.00388  -0.00437   0.00000  -0.00551   1.76553
    A2        2.13344   0.00305  -0.03673   0.00000  -0.03696   2.09648
    A3        1.99066  -0.00390   0.04736   0.00000   0.04701   2.03767
    A4        1.92537   0.00198  -0.01056   0.00000  -0.01076   1.91461
    A5        1.79267  -0.00088   0.02279   0.00000   0.02228   1.81495
    A6        1.82284   0.00293  -0.00880   0.00000  -0.00870   1.81415
    A7        2.06125  -0.00002   0.04177   0.00000   0.04177   2.10302
    A8        2.23659  -0.03563   0.22718   0.00000   0.22718   2.46377
    A9        2.31822   0.03487   0.56788   0.00000   0.56788   2.88611
   A10        1.55121   0.01771   0.12043   0.00000   0.12043   1.67164
   A11        1.89695  -0.00060  -0.02363   0.00000  -0.02363   1.87331
   A12        3.44815   0.01711   0.09680   0.00000   0.09680   3.54495
   A13        3.13650  -0.00152  -0.03667   0.00000  -0.03667   3.09982
    D1       -3.04704  -0.00289   0.03606   0.00000   0.03584  -3.01120
    D2       -0.76134  -0.00059  -0.01843   0.00000  -0.01809  -0.77943
    D3        1.17358   0.00305  -0.02137   0.00000  -0.02149   1.15209
    D4       -0.63198   0.00303  -0.04623   0.00000  -0.04708  -0.67906
    D5        1.26877  -0.00348  -0.02136   0.00000  -0.02066   1.24812
    D6       -3.00397  -0.00058  -0.02725   0.00000  -0.02710  -3.03107
    D7       -0.36979   0.00097  -0.10646   0.00000  -0.10646  -0.47625
    D8        1.86869  -0.00607  -0.02978   0.00000  -0.02978   1.83891
    D9        3.13650  -0.00152  -0.03667   0.00000  -0.03667   3.09982
         Item               Value     Threshold  Converged?
 Maximum Force            0.082471     0.000450     NO 
 RMS     Force            0.025813     0.000300     NO 
 Maximum Displacement     1.954271     0.001800     NO 
 RMS     Displacement     0.696693     0.001200     NO 
 Predicted change in Energy=-9.887538D-02
 GradGradGradGradGradGradGradGradGradGradGradGradGradGradGradGradGradGrad

                          Input orientation:                          
 ---------------------------------------------------------------------
 Center     Atomic      Atomic             Coordinates (Angstroms)
 Number     Number       Type             X           Y           Z
 ---------------------------------------------------------------------
      1         16           0       -0.379388    0.234441    0.654082
      2         17           0       -3.547852    0.304702    0.219680
      3          8           0        0.637120    1.387977    1.117907
      4          8           0       -1.957702    1.179268    0.527910
      5          8           0       -0.596119   -1.053433    1.565251
      6          8           0       -0.148628   -0.418963   -0.950672
      7          1           0        0.118791   -0.101467   -1.994975
      8          8           0        0.358515    0.778404   -3.484664
      9          1           0        1.332064    0.900198   -3.372625
     10          1           0        0.113431    1.169269   -4.346213
 ---------------------------------------------------------------------
                    Distance matrix (angstroms):
                    1          2          3          4          5
     1  S    0.000000
     2  Cl   3.198876   0.000000
     3  O    1.605948   4.415233   0.000000
     4  O    1.843826   1.840773   2.669224   0.000000
     5  O    1.592426   3.516791   2.771548   2.813350   0.000000
     6  O    1.747977   3.667170   2.856826   2.830777   2.632996
     7  H    2.716343   4.302783   3.489577   3.509566   3.754004
     8  O    4.239058   5.404281   4.651114   4.650409   5.456060
     9  H    4.425683   6.088748   4.570094   5.110246   5.649529
    10  H    5.110746   5.916067   5.493513   5.295920   6.355255
                    6          7          8          9         10
     6  O    0.000000
     7  H    1.123782   0.000000
     8  O    2.848156   1.746657   0.000000
     9  H    3.130254   2.091240   0.987515   0.000000
    10  H    3.757772   2.672661   0.977296   1.582826   0.000000
 Stoichiometry    ClH3O5S
 Framework group  C1[X(ClH3O5S)]
 Deg. of freedom    24
 Full point group                 C1      NOp   1
 Largest Abelian subgroup         C1      NOp   1
 Largest concise Abelian subgroup C1      NOp   1
                         Standard orientation:                         
 ---------------------------------------------------------------------
 Center     Atomic      Atomic             Coordinates (Angstroms)
 Number     Number       Type             X           Y           Z
 ---------------------------------------------------------------------
      1         16           0       -0.079710    0.977454    0.013710
      2         17           0       -1.944910   -1.621352    0.019686
      3          8           0        0.381260    1.929500   -1.194671
      4          8           0       -0.999381   -0.335495   -0.897369
      5          8           0       -0.990383    1.556637    1.184624
      6          8           0        1.181236    0.105152    0.853070
      7          1           0        2.143344   -0.442915    0.661091
      8          8           0        3.453005   -1.365004   -0.035582
      9          1           0        4.053268   -0.593761   -0.177193
     10          1           0        3.936325   -2.165925   -0.318487
 ---------------------------------------------------------------------
 Rotational constants (GHZ):      1.5463729      1.0373769      0.7507421
 Standard basis: 6-311G (5D, 7F)
 There are   116 symmetry adapted cartesian basis functions of A   symmetry.
 There are   116 symmetry adapted basis functions of A   symmetry.
   116 basis functions,   228 primitive gaussians,   116 cartesian basis functions
    38 alpha electrons       38 beta electrons
       nuclear repulsion energy       474.4030495844 Hartrees.



 Warning!  S  atom    1 may be hypervalent but has no d functions.



 NAtoms=   10 NActive=   10 NUniq=   10 SFac= 1.00D+00 NAtFMM=   60 NAOKFM=F Big=F
 Integral buffers will be    131072 words long.
 Raffenetti 2 integral format.
 Two-electron integral symmetry is turned on.
 One-electron integrals computed using PRISM.
 NBasis=   116 RedAO= T EigKep=  1.31D-02  NBF=   116
 NBsUse=   116 1.00D-06 EigRej= -1.00D+00 NBFU=   116
 Initial guess from the checkpoint file:  "HClSO4-h2o.chk"
 B after Tr=     0.000000    0.000000    0.000000
         Rot=    0.981294   -0.055873   -0.038588   -0.180142 Ang= -22.20 deg.
 ExpMin= 7.71D-02 ExpMax= 1.06D+05 ExpMxC= 3.62D+03 IAcc=2 IRadAn=         4 AccDes= 0.00D+00
 Harris functional with IExCor=  402 and IRadAn=       4 diagonalized for initial guess.
 HarFok:  IExCor=  402 AccDes= 0.00D+00 IRadAn=         4 IDoV= 1 UseB2=F ITyADJ=14
 ICtDFT=  3500011 ScaDFX=  1.000000  1.000000  1.000000  1.000000
 FoFCou: FMM=F IPFlag=           0 FMFlag=      100000 FMFlg1=           0
         NFxFlg=           0 DoJE=T BraDBF=F KetDBF=T FulRan=T
         wScrn=  0.000000 ICntrl=     500 IOpCl=  0 I1Cent=   200000004 NGrid=           0
         NMat0=    1 NMatS0=      1 NMatT0=    0 NMatD0=    1 NMtDS0=    0 NMtDT0=    0
 Petite list used in FoFCou.
 Keep R1 ints in memory in canonical form, NReq=24029036.
 Requested convergence on RMS density matrix=1.00D-08 within 128 cycles.
 Requested convergence on MAX density matrix=1.00D-06.
 Requested convergence on             energy=1.00D-06.
 No special actions if energy rises.
 Integral accuracy reduced to 1.0D-05 until final iterations.
 Initial convergence to 1.0D-05 achieved.  Increase integral accuracy.
 SCF Done:  E(RB3LYP) =  -1236.00078655     A.U. after   18 cycles
            NFock= 18  Conv=0.70D-08     -V/T= 2.0022
 Calling FoFJK, ICntrl=      2127 FMM=F ISym2X=0 I1Cent= 0 IOpClX= 0 NMat=1 NMatS=1 NMatT=0.
 ***** Axes restored to original set *****
 -------------------------------------------------------------------
 Center     Atomic                   Forces (Hartrees/Bohr)
 Number     Number              X              Y              Z
 -------------------------------------------------------------------
      1       16           0.012653106   -0.006602263   -0.005295435
      2       17           0.006755538   -0.001475745    0.000636041
      3        8          -0.002127598    0.002919447   -0.005794986
      4        8          -0.012679899    0.014319615   -0.002712243
      5        8          -0.000628707   -0.003214039   -0.001566302
      6        8           0.012996624   -0.010387726   -0.050831198
      7        1          -0.024017008    0.010930841    0.053741463
      8        8           0.027351417   -0.000210886    0.005705299
      9        1          -0.012023218    0.000015614   -0.002028383
     10        1          -0.008280254   -0.006294858    0.008145744
 -------------------------------------------------------------------
 Cartesian Forces:  Max     0.053741463 RMS     0.016595111

 GradGradGradGradGradGradGradGradGradGradGradGradGradGradGradGradGradGrad
 Berny optimization.
 Using GEDIIS/GDIIS optimizer.
 FormGI is forming the generalized inverse of G from B-inverse, IUseBI=4.
 Internal  Forces:  Max     0.063712918 RMS     0.015702955
 Search for a local minimum.
 Step number   4 out of a maximum of   41
 All quantities printed in internal units (Hartrees-Bohrs-Radians)
 Mixed Optimization -- RFO/linear search
 Update second derivatives using D2CorX and points    3    4
 ITU=  0  1  0  0
 Use linear search instead of GDIIS.
     Eigenvalues ---    0.00231   0.01522   0.01558   0.01754   0.02485
     Eigenvalues ---    0.06312   0.10017   0.14492   0.15167   0.15804
     Eigenvalues ---    0.17002   0.17500   0.21417   0.24903   0.25188
     Eigenvalues ---    0.27960   0.32847   0.46155   0.47644   0.52874
     Eigenvalues ---    0.55474   0.56255   1.02332   1.23653
 RFO step:  Lambda=-1.79726185D-02 EMin= 2.30785418D-03
 Quartic linear search produced a step of -0.34482.
 Iteration  1 RMS(Cart)=  0.33122945 RMS(Int)=  0.02782744
 Iteration  2 RMS(Cart)=  0.04261765 RMS(Int)=  0.00062390
 Iteration  3 RMS(Cart)=  0.00086716 RMS(Int)=  0.00008111
 Iteration  4 RMS(Cart)=  0.00000073 RMS(Int)=  0.00008110
 Variable       Old X    -DE/DX   Delta X   Delta X   Delta X     New X
                                 (Linear)    (Quad)   (Total)
    R1        3.03480  -0.00092  -0.06638   0.01686  -0.04952   2.98528
    R2        3.48433   0.01180  -0.07363   0.04761  -0.02602   3.45831
    R3        3.00925   0.00179  -0.06539   0.01854  -0.04684   2.96240
    R4        3.30320  -0.01182  -0.04714  -0.00319  -0.05033   3.25286
    R5        3.47856  -0.00524  -0.04198   0.00538  -0.03661   3.44195
    R6        2.12364  -0.06371  -0.05362  -0.08462  -0.13824   1.98540
    R7        3.30070  -0.01239  -0.14425  -0.04311  -0.18735   3.11335
    R8        1.86613  -0.01208  -0.01166  -0.01208  -0.02374   1.84239
    R9        1.84682  -0.00762  -0.00720  -0.00832  -0.01553   1.83130
    A1        1.76553  -0.00443   0.00190  -0.01618  -0.01446   1.75107
    A2        2.09648   0.00677   0.01274   0.01858   0.03135   2.12784
    A3        2.03767  -0.00451  -0.01621  -0.00560  -0.02203   2.01563
    A4        1.91461   0.00467   0.00371   0.01582   0.01951   1.93412
    A5        1.81495  -0.00266  -0.00768  -0.01098  -0.01878   1.79616
    A6        1.81415  -0.00055   0.00300  -0.00410  -0.00106   1.81309
    A7        2.10302  -0.01584  -0.01440  -0.04161  -0.05601   2.04701
    A8        2.46377  -0.04615  -0.07834  -0.14687  -0.22520   2.23857
    A9        2.88611   0.00595  -0.19582   0.06620  -0.12961   2.75649
   A10        1.67164   0.00826  -0.04153   0.09757   0.05604   1.72768
   A11        1.87331   0.00582   0.00815   0.06770   0.07585   1.94916
   A12        3.54495   0.01408  -0.03338   0.16526   0.13188   3.67683
   A13        3.09982  -0.00052   0.01265  -0.02416  -0.01151   3.08831
    D1       -3.01120  -0.00536  -0.01236  -0.01528  -0.02745  -3.03865
    D2       -0.77943   0.00246   0.00624   0.00530   0.01156  -0.76786
    D3        1.15209   0.00244   0.00741   0.00176   0.00895   1.16104
    D4       -0.67906   0.00457   0.01623  -0.03763  -0.02151  -0.70057
    D5        1.24812  -0.00450   0.00712  -0.06665  -0.05946   1.18866
    D6       -3.03107  -0.00060   0.00935  -0.05509  -0.04569  -3.07677
    D7       -0.47625  -0.00007   0.03671  -0.21386  -0.17715  -0.65340
    D8        1.83891  -0.00144   0.01027  -0.08687  -0.07660   1.76231
    D9        3.09982  -0.00052   0.01265  -0.02416  -0.01151   3.08831
         Item               Value     Threshold  Converged?
 Maximum Force            0.063713     0.000450     NO 
 RMS     Force            0.015703     0.000300     NO 
 Maximum Displacement     0.731012     0.001800     NO 
 RMS     Displacement     0.357551     0.001200     NO 
 Predicted change in Energy=-1.280918D-02
 GradGradGradGradGradGradGradGradGradGradGradGradGradGradGradGradGradGrad

                          Input orientation:                          
 ---------------------------------------------------------------------
 Center     Atomic      Atomic             Coordinates (Angstroms)
 Number     Number       Type             X           Y           Z
 ---------------------------------------------------------------------
      1         16           0       -0.316238    0.206626    0.504751
      2         17           0       -3.378151    0.378082   -0.059142
      3          8           0        0.757796    1.329264    0.790619
      4          8           0       -1.790226    1.239428    0.173412
      5          8           0       -0.644224   -0.912555    1.552294
      6          8           0       -0.111382   -0.655951   -0.970719
      7          1           0        0.171371   -0.280100   -1.910188
      8          8           0        0.250492    0.777913   -3.170606
      9          1           0        1.123797    1.169975   -2.985790
     10          1           0       -0.133003    1.127712   -3.988950
 ---------------------------------------------------------------------
                    Distance matrix (angstroms):
                    1          2          3          4          5
     1  S    0.000000
     2  Cl   3.118123   0.000000
     3  O    1.579742   4.328152   0.000000
     4  O    1.830057   1.821402   2.623248   0.000000
     5  O    1.567637   3.425906   2.751647   2.801012   0.000000
     6  O    1.721342   3.545699   2.792644   2.778492   2.591401
     7  H    2.511294   4.056930   3.198172   3.240096   3.613029
     8  O    3.762420   4.796678   4.031457   3.944614   5.095486
     9  H    3.896873   5.427698   3.797445   4.298478   5.296889
    10  H    4.590787   5.151341   4.866048   4.481532   5.927008
                    6          7          8          9         10
     6  O    0.000000
     7  H    1.050626   0.000000
     8  O    2.650740   1.647515   0.000000
     9  H    2.986668   2.041262   0.974952   0.000000
    10  H    3.505944   2.528998   0.969080   1.608622   0.000000
 Stoichiometry    ClH3O5S
 Framework group  C1[X(ClH3O5S)]
 Deg. of freedom    24
 Full point group                 C1      NOp   1
 Largest Abelian subgroup         C1      NOp   1
 Largest concise Abelian subgroup C1      NOp   1
                         Standard orientation:                         
 ---------------------------------------------------------------------
 Center     Atomic      Atomic             Coordinates (Angstroms)
 Number     Number       Type             X           Y           Z
 ---------------------------------------------------------------------
      1         16           0        0.085758    0.962421   -0.002686
      2         17           0       -1.992077   -1.362416    0.017894
      3          8           0        0.850717    1.669314   -1.190426
      4          8           0       -0.806672   -0.345928   -0.919694
      5          8           0       -0.891070    1.748447    0.938300
      6          8           0        1.073466    0.064815    1.084399
      7          1           0        1.893094   -0.552911    0.859812
      8          8           0        2.796151   -1.646978    0.022071
      9          1           0        3.407584   -1.031289   -0.422462
     10          1           0        3.011779   -2.570817   -0.175768
 ---------------------------------------------------------------------
 Rotational constants (GHZ):      1.6345396      1.2230208      0.8679172
 Standard basis: 6-311G (5D, 7F)
 There are   116 symmetry adapted cartesian basis functions of A   symmetry.
 There are   116 symmetry adapted basis functions of A   symmetry.
   116 basis functions,   228 primitive gaussians,   116 cartesian basis functions
    38 alpha electrons       38 beta electrons
       nuclear repulsion energy       491.1363559468 Hartrees.



 Warning!  S  atom    1 may be hypervalent but has no d functions.



 NAtoms=   10 NActive=   10 NUniq=   10 SFac= 1.00D+00 NAtFMM=   60 NAOKFM=F Big=F
 Integral buffers will be    131072 words long.
 Raffenetti 2 integral format.
 Two-electron integral symmetry is turned on.
 One-electron integrals computed using PRISM.
 NBasis=   116 RedAO= T EigKep=  1.21D-02  NBF=   116
 NBsUse=   116 1.00D-06 EigRej= -1.00D+00 NBFU=   116
 Initial guess from the checkpoint file:  "HClSO4-h2o.chk"
 B after Tr=     0.000000    0.000000    0.000000
         Rot=    0.997130    0.025395    0.023735    0.067261 Ang=   8.68 deg.
 ExpMin= 7.71D-02 ExpMax= 1.06D+05 ExpMxC= 3.62D+03 IAcc=2 IRadAn=         4 AccDes= 0.00D+00
 Harris functional with IExCor=  402 and IRadAn=       4 diagonalized for initial guess.
 HarFok:  IExCor=  402 AccDes= 0.00D+00 IRadAn=         4 IDoV= 1 UseB2=F ITyADJ=14
 ICtDFT=  3500011 ScaDFX=  1.000000  1.000000  1.000000  1.000000
 FoFCou: FMM=F IPFlag=           0 FMFlag=      100000 FMFlg1=           0
         NFxFlg=           0 DoJE=T BraDBF=F KetDBF=T FulRan=T
         wScrn=  0.000000 ICntrl=     500 IOpCl=  0 I1Cent=   200000004 NGrid=           0
         NMat0=    1 NMatS0=      1 NMatT0=    0 NMatD0=    1 NMtDS0=    0 NMtDT0=    0
 Petite list used in FoFCou.
 Keep R1 ints in memory in canonical form, NReq=24029036.
 Requested convergence on RMS density matrix=1.00D-08 within 128 cycles.
 Requested convergence on MAX density matrix=1.00D-06.
 Requested convergence on             energy=1.00D-06.
 No special actions if energy rises.
 Integral accuracy reduced to 1.0D-05 until final iterations.
 Initial convergence to 1.0D-05 achieved.  Increase integral accuracy.
 SCF Done:  E(RB3LYP) =  -1236.02057139     A.U. after   17 cycles
            NFock= 17  Conv=0.46D-08     -V/T= 2.0019
 Calling FoFJK, ICntrl=      2127 FMM=F ISym2X=0 I1Cent= 0 IOpClX= 0 NMat=1 NMatS=1 NMatT=0.
 ***** Axes restored to original set *****
 -------------------------------------------------------------------
 Center     Atomic                   Forces (Hartrees/Bohr)
 Number     Number              X              Y              Z
 -------------------------------------------------------------------
      1       16           0.006629565   -0.006482447   -0.007086276
      2       17          -0.002244294   -0.003003557   -0.000268760
      3        8           0.010621960    0.013174547   -0.002110423
      4        8          -0.009803206    0.015648229   -0.004047932
      5        8          -0.004352919   -0.012741126    0.011234847
      6        8           0.010054565   -0.015591784   -0.028174924
      7        1          -0.020031903    0.011238255    0.024966830
      8        8           0.016101525   -0.001608956    0.008242740
      9        1          -0.004560616    0.003273985   -0.005811608
     10        1          -0.002414677   -0.003907146    0.003055505
 -------------------------------------------------------------------
 Cartesian Forces:  Max     0.028174924 RMS     0.011284928

 GradGradGradGradGradGradGradGradGradGradGradGradGradGradGradGradGradGrad
 Berny optimization.
 Using GEDIIS/GDIIS optimizer.
 FormGI is forming the generalized inverse of G from B-inverse, IUseBI=4.
 Internal  Forces:  Max     0.034901025 RMS     0.010400600
 Search for a local minimum.
 Step number   5 out of a maximum of   41
 All quantities printed in internal units (Hartrees-Bohrs-Radians)
 Mixed Optimization -- RFO/linear search
 Update second derivatives using D2CorX and points    4    5
 DE= -1.98D-02 DEPred=-1.28D-02 R= 1.54D+00
 TightC=F SS=  1.41D+00  RLast= 4.56D-01 DXNew= 8.4853D-01 1.3687D+00
 Trust test= 1.54D+00 RLast= 4.56D-01 DXMaxT set to 8.49D-01
 ITU=  1  0  1  0  0
 Use linear search instead of GDIIS.
     Eigenvalues ---    0.00233   0.01496   0.01562   0.01755   0.02463
     Eigenvalues ---    0.05550   0.08008   0.14907   0.15141   0.15588
     Eigenvalues ---    0.16568   0.17196   0.21265   0.23887   0.25055
     Eigenvalues ---    0.26296   0.32733   0.41357   0.48418   0.51260
     Eigenvalues ---    0.55475   0.56212   1.02444   1.25749
 RFO step:  Lambda=-9.15840000D-03 EMin= 2.32586062D-03
 Quartic linear search produced a step of  0.57660.
 Iteration  1 RMS(Cart)=  0.17052929 RMS(Int)=  0.01474912
 Iteration  2 RMS(Cart)=  0.03018871 RMS(Int)=  0.00036246
 Iteration  3 RMS(Cart)=  0.00030516 RMS(Int)=  0.00020279
 Iteration  4 RMS(Cart)=  0.00000010 RMS(Int)=  0.00020279
 Variable       Old X    -DE/DX   Delta X   Delta X   Delta X     New X
                                 (Linear)    (Quad)   (Total)
    R1        2.98528   0.01621  -0.02855   0.03378   0.00522   2.99050
    R2        3.45831   0.01762  -0.01500   0.06323   0.04823   3.50653
    R3        2.96240   0.01751  -0.02701   0.03273   0.00572   2.96812
    R4        3.25286   0.00125  -0.02902   0.02686  -0.00216   3.25071
    R5        3.44195   0.00342  -0.02111   0.02137   0.00026   3.44221
    R6        1.98540  -0.02695  -0.07971  -0.02263  -0.10235   1.88305
    R7        3.11335  -0.00520  -0.10803  -0.01148  -0.11951   2.99385
    R8        1.84239  -0.00387  -0.01369  -0.00467  -0.01836   1.82404
    R9        1.83130  -0.00304  -0.00895  -0.00416  -0.01312   1.81818
    A1        1.75107  -0.00248  -0.00834  -0.00916  -0.01811   1.73296
    A2        2.12784   0.00437   0.01808   0.00706   0.02516   2.15299
    A3        2.01563  -0.00562  -0.01270  -0.00935  -0.02251   1.99312
    A4        1.93412   0.00169   0.01125   0.00354   0.01473   1.94885
    A5        1.79616  -0.00165  -0.01083  -0.00447  -0.01562   1.78054
    A6        1.81309   0.00272  -0.00061   0.00989   0.00934   1.82242
    A7        2.04701  -0.00548  -0.03230  -0.01335  -0.04564   2.00137
    A8        2.23857  -0.03490  -0.12985  -0.07964  -0.20949   2.02908
    A9        2.75649   0.00905  -0.07474   0.14258   0.06784   2.82434
   A10        1.72768   0.01144   0.03231   0.10902   0.14133   1.86901
   A11        1.94916  -0.00150   0.04373  -0.00442   0.03931   1.98846
   A12        3.67683   0.00994   0.07604   0.10459   0.18064   3.85747
   A13        3.08831  -0.00019  -0.00664   0.00020  -0.00644   3.08186
    D1       -3.03865  -0.00410  -0.01583  -0.00480  -0.02034  -3.05898
    D2       -0.76786   0.00050   0.00667  -0.00026   0.00648  -0.76139
    D3        1.16104   0.00343   0.00516   0.01016   0.01496   1.17601
    D4       -0.70057   0.00354  -0.01240  -0.00891  -0.02178  -0.72235
    D5        1.18866  -0.00258  -0.03429  -0.02600  -0.05992   1.12874
    D6       -3.07677  -0.00035  -0.02635  -0.02015  -0.04641  -3.12317
    D7       -0.65340   0.00066  -0.10214  -0.07563  -0.17778  -0.83118
    D8        1.76231  -0.00162  -0.04417   0.09557   0.05140   1.81371
    D9        3.08831  -0.00019  -0.00664   0.00020  -0.00644   3.08186
         Item               Value     Threshold  Converged?
 Maximum Force            0.034901     0.000450     NO 
 RMS     Force            0.010401     0.000300     NO 
 Maximum Displacement     0.364429     0.001800     NO 
 RMS     Displacement     0.194860     0.001200     NO 
 Predicted change in Energy=-9.973781D-03
 GradGradGradGradGradGradGradGradGradGradGradGradGradGradGradGradGradGrad

                          Input orientation:                          
 ---------------------------------------------------------------------
 Center     Atomic      Atomic             Coordinates (Angstroms)
 Number     Number       Type             X           Y           Z
 ---------------------------------------------------------------------
      1         16           0       -0.278343    0.175525    0.424314
      2         17           0       -3.299914    0.416309   -0.204074
      3          8           0        0.843849    1.275222    0.613197
      4          8           0       -1.704778    1.276223   -0.019436
      5          8           0       -0.669617   -0.859480    1.539057
      6          8           0       -0.102414   -0.774154   -0.999148
      7          1           0        0.164927   -0.285072   -1.825147
      8          8           0        0.223203    0.795300   -2.982440
      9          1           0        0.993116    1.352017   -2.812187
     10          1           0       -0.239798    1.008504   -3.798458
 ---------------------------------------------------------------------
                    Distance matrix (angstroms):
                    1          2          3          4          5
     1  S    0.000000
     2  Cl   3.095601   0.000000
     3  O    1.582506   4.310039   0.000000
     4  O    1.855578   1.821539   2.625971   0.000000
     5  O    1.570663   3.403617   2.775743   2.839311   0.000000
     6  O    1.720199   3.503335   2.773988   2.780549   2.602207
     7  H    2.338528   3.889079   2.973377   3.032166   3.513442
     8  O    3.498806   4.502811   3.680235   3.567603   4.896872
     9  H    3.670924   5.109590   3.429494   3.883791   5.156425
    10  H    4.304317   4.757583   4.550618   4.061877   5.671258
                    6          7          8          9         10
     6  O    0.000000
     7  H    0.996467   0.000000
     8  O    2.550031   1.584275   0.000000
     9  H    3.001316   2.083316   0.965239   0.000000
    10  H    3.321578   2.393971   0.962139   1.615800   0.000000
 Stoichiometry    ClH3O5S
 Framework group  C1[X(ClH3O5S)]
 Deg. of freedom    24
 Full point group                 C1      NOp   1
 Largest Abelian subgroup         C1      NOp   1
 Largest concise Abelian subgroup C1      NOp   1
                         Standard orientation:                         
 ---------------------------------------------------------------------
 Center     Atomic      Atomic             Coordinates (Angstroms)
 Number     Number       Type             X           Y           Z
 ---------------------------------------------------------------------
      1         16           0        0.249698    0.929183   -0.011784
      2         17           0       -2.113053   -1.070657    0.016356
      3          8           0        1.216678    1.392821   -1.175533
      4          8           0       -0.740206   -0.341411   -0.933115
      5          8           0       -0.674354    1.915887    0.787920
      6          8           0        1.012367   -0.021936    1.201803
      7          1           0        1.661051   -0.707343    0.881847
      8          8           0        2.313378   -1.895267    0.061339
      9          1           0        2.946450   -1.502120   -0.552128
     10          1           0        2.296342   -2.857049    0.041451
 ---------------------------------------------------------------------
 Rotational constants (GHZ):      1.7098636      1.3001908      0.9293338
 Standard basis: 6-311G (5D, 7F)
 There are   116 symmetry adapted cartesian basis functions of A   symmetry.
 There are   116 symmetry adapted basis functions of A   symmetry.
   116 basis functions,   228 primitive gaussians,   116 cartesian basis functions
    38 alpha electrons       38 beta electrons
       nuclear repulsion energy       497.8053464974 Hartrees.



 Warning!  S  atom    1 may be hypervalent but has no d functions.



 NAtoms=   10 NActive=   10 NUniq=   10 SFac= 1.00D+00 NAtFMM=   60 NAOKFM=F Big=F
 Integral buffers will be    131072 words long.
 Raffenetti 2 integral format.
 Two-electron integral symmetry is turned on.
 One-electron integrals computed using PRISM.
 NBasis=   116 RedAO= T EigKep=  1.18D-02  NBF=   116
 NBsUse=   116 1.00D-06 EigRej= -1.00D+00 NBFU=   116
 Initial guess from the checkpoint file:  "HClSO4-h2o.chk"
 B after Tr=     0.000000    0.000000    0.000000
         Rot=    0.996869    0.019606    0.015258    0.075062 Ang=   9.07 deg.
 ExpMin= 7.71D-02 ExpMax= 1.06D+05 ExpMxC= 3.62D+03 IAcc=2 IRadAn=         4 AccDes= 0.00D+00
 Harris functional with IExCor=  402 and IRadAn=       4 diagonalized for initial guess.
 HarFok:  IExCor=  402 AccDes= 0.00D+00 IRadAn=         4 IDoV= 1 UseB2=F ITyADJ=14
 ICtDFT=  3500011 ScaDFX=  1.000000  1.000000  1.000000  1.000000
 FoFCou: FMM=F IPFlag=           0 FMFlag=      100000 FMFlg1=           0
         NFxFlg=           0 DoJE=T BraDBF=F KetDBF=T FulRan=T
         wScrn=  0.000000 ICntrl=     500 IOpCl=  0 I1Cent=   200000004 NGrid=           0
         NMat0=    1 NMatS0=      1 NMatT0=    0 NMatD0=    1 NMtDS0=    0 NMtDT0=    0
 Petite list used in FoFCou.
 Keep R1 ints in memory in canonical form, NReq=24029036.
 Requested convergence on RMS density matrix=1.00D-08 within 128 cycles.
 Requested convergence on MAX density matrix=1.00D-06.
 Requested convergence on             energy=1.00D-06.
 No special actions if energy rises.
 Integral accuracy reduced to 1.0D-05 until final iterations.
 Initial convergence to 1.0D-05 achieved.  Increase integral accuracy.
 SCF Done:  E(RB3LYP) =  -1236.03163102     A.U. after   16 cycles
            NFock= 16  Conv=0.45D-08     -V/T= 2.0019
 Calling FoFJK, ICntrl=      2127 FMM=F ISym2X=0 I1Cent= 0 IOpClX= 0 NMat=1 NMatS=1 NMatT=0.
 ***** Axes restored to original set *****
 -------------------------------------------------------------------
 Center     Atomic                   Forces (Hartrees/Bohr)
 Number     Number              X              Y              Z
 -------------------------------------------------------------------
      1       16           0.001449691   -0.004667731   -0.001214789
      2       17          -0.004116534   -0.001590851   -0.000519076
      3        8           0.011197240    0.010982956   -0.001813078
      4        8          -0.005799555    0.008937490   -0.002850222
      5        8          -0.004450222   -0.008861224    0.011587503
      6        8           0.001347724   -0.021507244    0.004841389
      7        1          -0.007231351    0.014828448   -0.011263978
      8        8           0.008920217   -0.004392106    0.007628589
      9        1           0.000554856    0.006103984   -0.004995181
     10        1          -0.001872065    0.000166278   -0.001401157
 -------------------------------------------------------------------
 Cartesian Forces:  Max     0.021507244 RMS     0.007660667

 GradGradGradGradGradGradGradGradGradGradGradGradGradGradGradGradGradGrad
 Berny optimization.
 Using GEDIIS/GDIIS optimizer.
 FormGI is forming the generalized inverse of G from B-inverse, IUseBI=4.
 Internal  Forces:  Max     0.016612988 RMS     0.007048796
 Search for a local minimum.
 Step number   6 out of a maximum of   41
 All quantities printed in internal units (Hartrees-Bohrs-Radians)
 Mixed Optimization -- RFO/linear search
 Update second derivatives using D2CorX and points    5    6
 DE= -1.11D-02 DEPred=-9.97D-03 R= 1.11D+00
 TightC=F SS=  1.41D+00  RLast= 4.19D-01 DXNew= 1.4270D+00 1.2572D+00
 Trust test= 1.11D+00 RLast= 4.19D-01 DXMaxT set to 1.26D+00
 ITU=  1  1  0  1  0  0
 Use linear search instead of GDIIS.
     Eigenvalues ---    0.00230   0.01546   0.01615   0.01755   0.02525
     Eigenvalues ---    0.04536   0.09542   0.11331   0.15120   0.15413
     Eigenvalues ---    0.16603   0.17026   0.21398   0.24129   0.25237
     Eigenvalues ---    0.26104   0.32713   0.41222   0.48236   0.55300
     Eigenvalues ---    0.55479   0.61744   1.02351   1.19732
 RFO step:  Lambda=-5.55309686D-03 EMin= 2.30392741D-03
 Quartic linear search produced a step of  0.33855.
 Iteration  1 RMS(Cart)=  0.05926434 RMS(Int)=  0.01360044
 Iteration  2 RMS(Cart)=  0.01616133 RMS(Int)=  0.00118833
 Iteration  3 RMS(Cart)=  0.00132396 RMS(Int)=  0.00011472
 Iteration  4 RMS(Cart)=  0.00001061 RMS(Int)=  0.00011440
 Iteration  5 RMS(Cart)=  0.00000000 RMS(Int)=  0.00011440
 Variable       Old X    -DE/DX   Delta X   Delta X   Delta X     New X
                                 (Linear)    (Quad)   (Total)
    R1        2.99050   0.01536   0.00177   0.03030   0.03207   3.02257
    R2        3.50653   0.01279   0.01633   0.05076   0.06709   3.57362
    R3        2.96812   0.01517   0.00194   0.02856   0.03049   2.99862
    R4        3.25071   0.00712  -0.00073   0.02965   0.02892   3.27962
    R5        3.44221   0.00441   0.00009   0.01330   0.01338   3.45559
    R6        1.88305   0.01661  -0.03465   0.03915   0.00450   1.88755
    R7        2.99385   0.00066  -0.04046   0.01307  -0.02739   2.96645
    R8        1.82404   0.00308  -0.00621   0.00260  -0.00361   1.82043
    R9        1.81818   0.00212  -0.00444   0.00272  -0.00172   1.81646
    A1        1.73296  -0.00044  -0.00613  -0.00651  -0.01298   1.71999
    A2        2.15299   0.00213   0.00852   0.00614   0.01471   2.16770
    A3        1.99312  -0.00561  -0.00762  -0.01503  -0.02288   1.97024
    A4        1.94885  -0.00069   0.00499  -0.00041   0.00456   1.95341
    A5        1.78054  -0.00095  -0.00529  -0.00430  -0.00977   1.77077
    A6        1.82242   0.00460   0.00316   0.01653   0.01971   1.84213
    A7        2.00137   0.00191  -0.01545  -0.00273  -0.01819   1.98318
    A8        2.02908  -0.01615  -0.07092  -0.03289  -0.10382   1.92526
    A9        2.82434   0.00807   0.02297   0.13905   0.16202   2.98635
   A10        1.86901   0.00931   0.04785   0.09334   0.14119   2.01020
[...]
   151. RY*(   4) H  10                  0.00025     1.66427   
   152. RY*(   5) H  10                  0.00001     2.47785   
   159. BD*(   1) O   8 - H   9          0.00777     0.37273   
   160. BD*(   1) O   8 - H  10          0.00352     0.37583   
       -------------------------------
              Total Lewis    9.90393  ( 99.7837%)
        Valence non-Lewis    0.01129  (  0.1137%)
        Rydberg non-Lewis    0.01018  (  0.1026%)
       -------------------------------
            Total unit  2    9.92540  (100.0000%)
           Charge unit  2    0.07460
 1\1\GINC-INDIO\SP\RB3LYP\6-311G(d,p)\Cl1H3O5S1\SARARIOP\23-Jun-2017\0\
 \# B3LYP/6-311G** geom=check guess=read pop=nboread\\Title Card Requir
 ed\\0,1\S,0,-0.4203840219,0.3866558612,0.195969968\Cl,0,-3.5245677946,
 -0.0618056832,0.2816796857\O,0,0.4459141355,1.6872981824,-0.2350672671
 \O,0,-2.1602082943,1.0730627236,-0.1601804338\O,0,-0.3513524036,-0.283
 426832,1.6404281958\O,0,-0.2694920747,-0.8714836054,-1.0136581728\H,0,
 0.0581048856,-0.3926208044,-1.8800330726\O,0,0.6159094716,0.6529382328
 ,-2.810591801\H,0,0.8528209541,1.4557181283,-2.3142841878\H,0,0.683487
 5723,0.7340587467,-3.7685825744\\Version=AM64L-G09RevD.01\State=1-A\HF
 =-1236.2693254\RMSD=5.276e-09\Dipole=0.3076622,0.1793029,-1.865803\Qua
 drupole=-0.129673,-4.9618016,5.0914746,2.6070139,-6.7130967,-2.0006299
 \PG=C01 [X(Cl1H3O5S1)]\\@


 IF I HAVE SEEN FARTHER, IT IS BY STANDING ON THE
 SHOULDERS OF GIANTS. -- SIR ISAAC NEWTON
 Job cpu time:       0 days  0 hours  1 minutes 42.1 seconds.
 File lengths (MBytes):  RWF=     12 Int=      0 D2E=      0 Chk=      5 Scr=      1
 Normal termination of Gaussian 09 at Fri Jun 23 05:12:37 2017.
 Initial command:
 /usr/local/gaussian/gaussian09.d1/g09/l1.exe "/scratch/sarariop/HClSO4-h2o.com/Gau-24222.inp" -scrdir="/scratch/sarariop/HClSO4-h2o.com/"
 Default is to use a total of  10 processors:
                               10 via shared-memory
                                1 via Linda
 Entering Link 1 = /usr/local/gaussian/gaussian09.d1/g09/l1.exe PID=     28377.
  
 Copyright (c) 1988,1990,1992,1993,1995,1998,2003,2009,2013,
            Gaussian, Inc.  All Rights Reserved.
  
 This is part of the Gaussian(R) 09 program.  It is based on
 the Gaussian(R) 03 system (copyright 2003, Gaussian, Inc.),
 the Gaussian(R) 98 system (copyright 1998, Gaussian, Inc.),
 the Gaussian(R) 94 system (copyright 1995, Gaussian, Inc.),
 the Gaussian 92(TM) system (copyright 1992, Gaussian, Inc.),
 the Gaussian 90(TM) system (copyright 1990, Gaussian, Inc.),
 the Gaussian 88(TM) system (copyright 1988, Gaussian, Inc.),
 the Gaussian 86(TM) system (copyright 1986, Carnegie Mellon
 University), and the Gaussian 82(TM) system (copyright 1983,
 Carnegie Mellon University). Gaussian is a federally registered
 trademark of Gaussian, Inc.
  
 This software contains proprietary and confidential information,
 including trade secrets, belonging to Gaussian, Inc.
  
 This software is provided under written license and may be
 used, copied, transmitted, or stored only in accord with that
 written license.
  
 The following legend is applicable only to US Government
 contracts under FAR:
  
                    RESTRICTED RIGHTS LEGEND
  
 Use, reproduction and disclosure by the US Government is
 subject to restrictions as set forth in subparagraphs (a)
 and (c) of the Commercial Computer Software - Restricted
 Rights clause in FAR 52.227-19.
  
 Gaussian, Inc.
 340 Quinnipiac St., Bldg. 40, Wallingford CT 06492
  
  
 ---------------------------------------------------------------
 Warning -- This program may not be used in any manner that
 competes with the business of Gaussian, Inc. or will provide
 assistance to any competitor of Gaussian, Inc.  The licensee
 of this program is prohibited from giving any competitor of
 Gaussian, Inc. access to this program.  By using this program,
 the user acknowledges that Gaussian, Inc. is engaged in the
 business of creating and licensing software in the field of
 computational chemistry and represents and warrants to the
 licensee that it is not a competitor of Gaussian, Inc. and that
 it will not use this program in any manner prohibited above.
 ---------------------------------------------------------------
  

 Cite this work as:
 Gaussian 09, Revision D.01,
 M. J. Frisch, G. W. Trucks, H. B. Schlegel, G. E. Scuseria, 
 M. A. Robb, J. R. Cheeseman, G. Scalmani, V. Barone, B. Mennucci, 
 G. A. Petersson, H. Nakatsuji, M. Caricato, X. Li, H. P. Hratchian, 
 A. F. Izmaylov, J. Bloino, G. Zheng, J. L. Sonnenberg, M. Hada, 
 M. Ehara, K. Toyota, R. Fukuda, J. Hasegawa, M. Ishida, T. Nakajima, 
 Y. Honda, O. Kitao, H. Nakai, T. Vreven, J. A. Montgomery, Jr., 
 J. E. Peralta, F. Ogliaro, M. Bearpark, J. J. Heyd, E. Brothers, 
 K. N. Kudin, V. N. Staroverov, T. Keith, R. Kobayashi, J. Normand, 
 K. Raghavachari, A. Rendell, J. C. Burant, S. S. Iyengar, J. Tomasi, 
 M. Cossi, N. Rega, J. M. Millam, M. Klene, J. E. Knox, J. B. Cross, 
 V. Bakken, C. Adamo, J. Jaramillo, R. Gomperts, R. E. Stratmann, 
 O. Yazyev, A. J. Austin, R. Cammi, C. Pomelli, J. W. Ochterski, 
 R. L. Martin, K. Morokuma, V. G. Zakrzewski, G. A. Voth, 
 P. Salvador, J. J. Dannenberg, S. Dapprich, A. D. Daniels, 
 O. Farkas, J. B. Foresman, J. V. Ortiz, J. Cioslowski, 
 and D. J. Fox, Gaussian, Inc., Wallingford CT, 2013.
 
 ******************************************
 Gaussian 09:  AM64L-G09RevD.01 24-Apr-2013
                23-Jun-2017 
 ******************************************
 %chk=HClSO4-h2o.chk
 Default route:  MaxDisk=70GB
 -------------------------------------------------
 # B3LYP/6-311G** geom=check guess=read output=wfx
 -------------------------------------------------
 1/29=2,38=1/1;
 2/12=2,40=1/2;
 3/5=4,6=6,7=101,11=2,14=-4,16=1,25=1,30=1,74=-5,116=-2/1,2,3;
 4/5=1/1;
 5/5=2,38=6/2;
 6/7=2,8=2,9=2,10=2,28=1/1;
 99/5=1,6=200,9=1/99;
 -------------------
 Title Card Required
 -------------------
 Structure from the checkpoint file:  "HClSO4-h2o.chk"
 Charge =  0 Multiplicity = 1
 Redundant internal coordinates found in file.
 S,0,-0.4203840219,0.3866558612,0.195969968
 Cl,0,-3.5245677946,-0.0618056832,0.2816796857
 O,0,0.4459141355,1.6872981824,-0.2350672671
 O,0,-2.1602082943,1.0730627236,-0.1601804338
 O,0,-0.3513524036,-0.283426832,1.6404281958
 O,0,-0.2694920747,-0.8714836054,-1.0136581728
 H,0,0.0581048856,-0.3926208044,-1.8800330726
 O,0,0.6159094716,0.6529382328,-2.810591801
 H,0,0.8528209541,1.4557181283,-2.3142841878
 H,0,0.6834875723,0.7340587467,-3.7685825744
 Recover connectivity data from disk.
                          Input orientation:                          
 ---------------------------------------------------------------------
 Center     Atomic      Atomic             Coordinates (Angstroms)
 Number     Number       Type             X           Y           Z
 ---------------------------------------------------------------------
      1         16           0       -0.420384    0.386656    0.195970
      2         17           0       -3.524568   -0.061806    0.281680
      3          8           0        0.445914    1.687298   -0.235067
      4          8           0       -2.160208    1.073063   -0.160180
      5          8           0       -0.351352   -0.283427    1.640428
      6          8           0       -0.269492   -0.871484   -1.013658
      7          1           0        0.058105   -0.392621   -1.880033
      8          8           0        0.615909    0.652938   -2.810592
      9          1           0        0.852821    1.455718   -2.314284
     10          1           0        0.683488    0.734059   -3.768583
 ---------------------------------------------------------------------
                    Distance matrix (angstroms):
                    1          2          3          4          5
     1  S    0.000000
     2  Cl   3.137582   0.000000
     3  O    1.621091   4.369338   0.000000
     4  O    1.903940   1.828837   2.678576   0.000000
     5  O    1.593812   3.458990   2.834938   2.890366   0.000000
     6  O    1.751823   3.595691   2.768641   2.843324   2.719685
     7  H    2.268482   4.197378   2.679995   3.166549   3.545875
     8  O    3.191273   5.216949   2.780670   3.861090   4.650156
     9  H    3.010867   5.310691   2.131278   3.723565   4.484909
    10  H    4.130000   5.894553   3.667538   4.606745   5.600319
                    6          7          8          9         10
     6  O    0.000000
     7  H    1.042706   0.000000
     8  O    2.517294   1.506745   0.000000
     9  H    2.892591   2.058277   0.973090   0.000000
    10  H    3.327994   2.286292   0.963791   1.632314   0.000000
 Stoichiometry    ClH3O5S
 Framework group  C1[X(ClH3O5S)]
 Deg. of freedom    24
 Full point group                 C1      NOp   1
 Largest Abelian subgroup         C1      NOp   1
 Largest concise Abelian subgroup C1      NOp   1
                         Standard orientation:                         
 ---------------------------------------------------------------------
 Center     Atomic      Atomic             Coordinates (Angstroms)
 Number     Number       Type             X           Y           Z
 ---------------------------------------------------------------------
      1         16           0        0.296348    0.717028   -0.020982
      2         17           0       -2.452646   -0.794119    0.041342
      3          8           0        1.440166    0.778928   -1.168059
      4          8           0       -0.903807   -0.485204   -0.880781
      5          8           0       -0.472224    1.999005    0.532250
      6          8           0        0.852939   -0.234136    1.340773
      7          1           0        1.638992   -0.814873    0.977317
      8          8           0        2.735702   -1.337792    0.086216
      9          1           0        2.803190   -0.797061   -0.719984
     10          1           0        3.289031   -2.126895    0.092389
 ---------------------------------------------------------------------
 Rotational constants (GHZ):      2.2993210      1.0420986      0.8923321
 Standard basis: 6-311G(d,p) (5D, 7F)
 There are   167 symmetry adapted cartesian basis functions of A   symmetry.
 There are   160 symmetry adapted basis functions of A   symmetry.
   160 basis functions,   279 primitive gaussians,   167 cartesian basis functions
    38 alpha electrons       38 beta electrons
       nuclear repulsion energy       494.7798476898 Hartrees.
 NAtoms=   10 NActive=   10 NUniq=   10 SFac= 1.00D+00 NAtFMM=   60 NAOKFM=F Big=F
 Integral buffers will be    131072 words long.
 Raffenetti 2 integral format.
 Two-electron integral symmetry is turned on.
 One-electron integrals computed using PRISM.
 NBasis=   160 RedAO= T EigKep=  1.10D-02  NBF=   160
 NBsUse=   160 1.00D-06 EigRej= -1.00D+00 NBFU=   160
 Initial guess from the checkpoint file:  "HClSO4-h2o.chk"
 B after Tr=     0.000000    0.000000    0.000000
         Rot=    1.000000    0.000000    0.000000    0.000000 Ang=   0.00 deg.
 Keep R1 ints in memory in canonical form, NReq=85429502.
 Requested convergence on RMS density matrix=1.00D-08 within 128 cycles.
 Requested convergence on MAX density matrix=1.00D-06.
 Requested convergence on             energy=1.00D-06.
 No special actions if energy rises.
 SCF Done:  E(RB3LYP) =  -1236.26932536     A.U. after    1 cycles
            NFock=  1  Conv=0.17D-08     -V/T= 2.0029

 **********************************************************************

            Population analysis using the SCF density.

 **********************************************************************

 Orbital symmetries:
       Occupied  (A) (A) (A) (A) (A) (A) (A) (A) (A) (A) (A) (A)
                 (A) (A) (A) (A) (A) (A) (A) (A) (A) (A) (A) (A)
                 (A) (A) (A) (A) (A) (A) (A) (A) (A) (A) (A) (A)
                 (A) (A)
       Virtual   (A) (A) (A) (A) (A) (A) (A) (A) (A) (A) (A) (A)
                 (A) (A) (A) (A) (A) (A) (A) (A) (A) (A) (A) (A)
                 (A) (A) (A) (A) (A) (A) (A) (A) (A) (A) (A) (A)
                 (A) (A) (A) (A) (A) (A) (A) (A) (A) (A) (A) (A)
                 (A) (A) (A) (A) (A) (A) (A) (A) (A) (A) (A) (A)
                 (A) (A) (A) (A) (A) (A) (A) (A) (A) (A) (A) (A)
                 (A) (A) (A) (A) (A) (A) (A) (A) (A) (A) (A) (A)
                 (A) (A) (A) (A) (A) (A) (A) (A) (A) (A) (A) (A)
                 (A) (A) (A) (A) (A) (A) (A) (A) (A) (A) (A) (A)
                 (A) (A) (A) (A) (A) (A) (A) (A) (A) (A) (A) (A)
                 (A) (A)
 The electronic state is 1-A.
 Alpha  occ. eigenvalues -- -101.61880 -89.13777 -19.24265 -19.19974 -19.18929
 Alpha  occ. eigenvalues --  -19.18543 -19.17607  -9.52734  -8.19396  -7.29675
 Alpha  occ. eigenvalues --   -7.28062  -7.27984  -6.15696  -6.15642  -6.15518
 Alpha  occ. eigenvalues --   -1.11973  -1.07047  -1.03510  -1.02558  -1.00982
 Alpha  occ. eigenvalues --   -0.82471  -0.70492  -0.60940  -0.57429  -0.53294
 Alpha  occ. eigenvalues --   -0.50822  -0.48668  -0.45457  -0.41976  -0.41273
 Alpha  occ. eigenvalues --   -0.39339  -0.37420  -0.37354  -0.35833  -0.35019
 Alpha  occ. eigenvalues --   -0.34378  -0.33632  -0.31896
 Alpha virt. eigenvalues --   -0.16021  -0.11401  -0.06054  -0.02035   0.00064
 Alpha virt. eigenvalues --    0.03914   0.09469   0.14825   0.16996   0.18626
 Alpha virt. eigenvalues --    0.22248   0.26273   0.28476   0.29047   0.31167
 Alpha virt. eigenvalues --    0.33252   0.36546   0.47048   0.52422   0.53438
 Alpha virt. eigenvalues --    0.63005   0.64672   0.68205   0.69242   0.69771
 Alpha virt. eigenvalues --    0.71103   0.72136   0.77436   0.79748   0.81618
 Alpha virt. eigenvalues --    0.82580   0.83050   0.83764   0.85126   0.86016
 Alpha virt. eigenvalues --    0.86938   0.87701   0.90413   0.93733   0.96747
 Alpha virt. eigenvalues --    0.99742   1.02051   1.03781   1.13290   1.18292
 Alpha virt. eigenvalues --    1.21610   1.25253   1.28844   1.34671   1.36347
 Alpha virt. eigenvalues --    1.43927   1.48402   1.53861   1.54990   1.56251
 Alpha virt. eigenvalues --    1.62253   1.71678   1.73722   1.92016   1.98176
 Alpha virt. eigenvalues --    2.06141   2.06434   2.09855   2.19720   2.32438
 Alpha virt. eigenvalues --    2.45262   2.51120   2.72923   2.73911   2.75431
 Alpha virt. eigenvalues --    2.77155   2.77996   2.78153   2.79197   2.80452
 Alpha virt. eigenvalues --    2.81622   2.82105   2.85505   2.88770   2.94742
 Alpha virt. eigenvalues --    3.01813   3.03551   3.05153   3.09015   3.11218
 Alpha virt. eigenvalues --    3.12204   3.23155   3.27916   3.32525   3.64929
 Alpha virt. eigenvalues --    3.67232   3.74944   4.67050   4.69040   4.71307
 Alpha virt. eigenvalues --    4.74198   4.75737   4.77211   4.78276   4.80864
 Alpha virt. eigenvalues --    4.84121   4.90100   4.94027   4.95888   5.10785
 Alpha virt. eigenvalues --    5.47442   5.60516   7.57975   9.35620  17.09280
 Alpha virt. eigenvalues --   17.10076  17.18374  25.35332  25.38101  25.75704
 Alpha virt. eigenvalues --   49.64876  49.70306  49.70973  49.78113  49.81763
 Alpha virt. eigenvalues --  188.60022 215.27930
          Condensed to atoms (all electrons):
               1          2          3          4          5          6
     1  S   13.917230  -0.033647   0.306432   0.105077   0.360155   0.171673
     2  Cl  -0.033647  16.790050   0.001260   0.075562   0.002460   0.002548
     3  O    0.306432   0.001260   8.241960  -0.020959  -0.020527  -0.026078
     4  O    0.105077   0.075562  -0.020959   8.308175  -0.020848  -0.020335
     5  O    0.360155   0.002460  -0.020527  -0.020848   8.114857  -0.026112
     6  O    0.171673   0.002548  -0.026078  -0.020335  -0.026112   8.137163
     7  H   -0.023294  -0.000012   0.000660   0.000597  -0.000526   0.270549
     8  O   -0.000247  -0.000005  -0.007016  -0.000168  -0.000019  -0.042625
     9  H   -0.001323  -0.000005   0.021633   0.000029   0.000024   0.003731
    10  H    0.001353  -0.000001   0.000173  -0.000001   0.000005   0.002086
               7          8          9         10
     1  S   -0.023294  -0.000247  -0.001323   0.001353
     2  Cl  -0.000012  -0.000005  -0.000005  -0.000001
     3  O    0.000660  -0.007016   0.021633   0.000173
     4  O    0.000597  -0.000168   0.000029  -0.000001
     5  O   -0.000526  -0.000019   0.000024   0.000005
     6  O    0.270549  -0.042625   0.003731   0.002086
     7  H    0.312553   0.091169  -0.012545  -0.005739
     8  O    0.091169   7.858714   0.309802   0.318746
     9  H   -0.012545   0.309802   0.382621  -0.016911
    10  H   -0.005739   0.318746  -0.016911   0.403116
 Mulliken charges:
               1
     1  S    1.196591
     2  Cl   0.161790
     3  O   -0.497537
     4  O   -0.427129
     5  O   -0.409468
     6  O   -0.472600
     7  H    0.366589
     8  O   -0.528351
     9  H    0.312943
    10  H    0.297173
 Sum of Mulliken charges =   0.00000
 Mulliken charges with hydrogens summed into heavy atoms:
               1
     1  S    1.196591
     2  Cl   0.161790
     3  O   -0.497537
     4  O   -0.427129
     5  O   -0.409468
     6  O   -0.106012
     8  O    0.081765
 Electronic spatial extent (au):  <R**2>=           1289.0770
 Charge=              0.0000 electrons
 Dipole moment (field-independent basis, Debye):
    X=              3.1277    Y=             -3.6778    Z=              0.0309  Tot=              4.8280
 Quadrupole moment (field-independent basis, Debye-Ang):
   XX=            -40.3549   YY=            -53.7831   ZZ=            -58.4432
   XY=             -7.4160   XZ=             -1.7998   YZ=             -0.5998
 Traceless Quadrupole moment (field-independent basis, Debye-Ang):
   XX=             10.5055   YY=             -2.9227   ZZ=             -7.5828
   XY=             -7.4160   XZ=             -1.7998   YZ=             -0.5998
 Octapole moment (field-independent basis, Debye-Ang**2):
  XXX=             39.9597  YYY=            -24.5231  ZZZ=             -0.6923  XYY=             24.1370
  XXY=            -36.2396  XXZ=              0.6684  XZZ=              3.2683  YZZ=             -4.4060
  YYZ=              0.4066  XYZ=              4.5162
 Hexadecapole moment (field-independent basis, Debye-Ang**3):
 XXXX=           -744.5974 YYYY=           -363.0414 ZZZZ=           -206.5161 XXXY=            -98.3867
 XXXZ=            -38.9007 YYYX=            -58.1203 YYYZ=             -6.2713 ZZZX=             -1.6261
 ZZZY=              0.6300 XXYY=           -151.9215 XXZZ=           -184.6396 YYZZ=            -95.9868
 XXYZ=              0.3916 YYXZ=              4.8134 ZZXY=            -10.9845
 N-N= 4.947798476898D+02 E-N=-3.921598142991D+03  KE= 1.232703525818D+03
 1\1\GINC-INDIO\SP\RB3LYP\6-311G(d,p)\Cl1H3O5S1\SARARIOP\23-Jun-2017\0\
 \# B3LYP/6-311G** geom=check guess=read output=wfx\\Title Card Require
 d\\0,1\S,0,-0.4203840219,0.3866558612,0.195969968\Cl,0,-3.5245677946,-
 0.0618056832,0.2816796857\O,0,0.4459141355,1.6872981824,-0.2350672671\
 O,0,-2.1602082943,1.0730627236,-0.1601804338\O,0,-0.3513524036,-0.2834
 26832,1.6404281958\O,0,-0.2694920747,-0.8714836054,-1.0136581728\H,0,0
 .0581048856,-0.3926208044,-1.8800330726\O,0,0.6159094716,0.6529382328,
 -2.810591801\H,0,0.8528209541,1.4557181283,-2.3142841878\H,0,0.6834875
 723,0.7340587467,-3.7685825744\\Version=AM64L-G09RevD.01\State=1-A\HF=
 -1236.2693254\RMSD=1.667e-09\Dipole=0.3076614,0.1793023,-1.865803\Quad
 rupole=-0.12967,-4.9618035,5.0914736,2.6070152,-6.713098,-2.0006305\PG
 =C01 [X(Cl1H3O5S1)]\\@

 Writing a WFNX file to "HClSO4-h2o.wfx"


 CONTRAIWISE...CONTINUED TWEEDLEDEE, IF IT WAS SO, IT MIGHT BE,
 AND IF IT WERE SO, IT WOULD BE.....
 BUT AS IT ISN'T, IT AIN'T....
 THAT'S LOGIC.....
 ALICE THROUGH THE LOOKING GLASS
 Job cpu time:       0 days  0 hours  0 minutes 23.8 seconds.
 File lengths (MBytes):  RWF=     12 Int=      0 D2E=      0 Chk=      5 Scr=      1
 Normal termination of Gaussian 09 at Fri Jun 23 05:12:41 2017.
