 Entering Gaussian System, Link 0=g09
 Initial command:
 /usr/local/gaussian/gaussian09.d1/g09/l1.exe "/scratch/sarariop/HF2PO4-A.com/Gau-5938.inp" -scrdir="/scratch/sarariop/HF2PO4-A.com/"
 Default is to use a total of  10 processors:
                               10 via shared-memory
                                1 via Linda
 Entering Link 1 = /usr/local/gaussian/gaussian09.d1/g09/l1.exe PID=      5939.
  
 Copyright (c) 1988,1990,1992,1993,1995,1998,2003,2009,2013,
            Gaussian, Inc.  All Rights Reserved.
  
 This is part of the Gaussian(R) 09 program.  It is based on
 the Gaussian(R) 03 system (copyright 2003, Gaussian, Inc.),
 the Gaussian(R) 98 system (copyright 1998, Gaussian, Inc.),
 the Gaussian(R) 94 system (copyright 1995, Gaussian, Inc.),
 the Gaussian 92(TM) system (copyright 1992, Gaussian, Inc.),
 the Gaussian 90(TM) system (copyright 1990, Gaussian, Inc.),
 the Gaussian 88(TM) system (copyright 1988, Gaussian, Inc.),
 the Gaussian 86(TM) system (copyright 1986, Carnegie Mellon
 University), and the Gaussian 82(TM) system (copyright 1983,
 Carnegie Mellon University). Gaussian is a federally registered
 trademark of Gaussian, Inc.
  
 This software contains proprietary and confidential information,
 including trade secrets, belonging to Gaussian, Inc.
  
 This software is provided under written license and may be
 used, copied, transmitted, or stored only in accord with that
 written license.
  
 The following legend is applicable only to US Government
 contracts under FAR:
  
                    RESTRICTED RIGHTS LEGEND
  
 Use, reproduction and disclosure by the US Government is
 subject to restrictions as set forth in subparagraphs (a)
 and (c) of the Commercial Computer Software - Restricted
 Rights clause in FAR 52.227-19.
  
 Gaussian, Inc.
 340 Quinnipiac St., Bldg. 40, Wallingford CT 06492
  
  
 ---------------------------------------------------------------
 Warning -- This program may not be used in any manner that
 competes with the business of Gaussian, Inc. or will provide
 assistance to any competitor of Gaussian, Inc.  The licensee
 of this program is prohibited from giving any competitor of
 Gaussian, Inc. access to this program.  By using this program,
 the user acknowledges that Gaussian, Inc. is engaged in the
 business of creating and licensing software in the field of
 computational chemistry and represents and warrants to the
 licensee that it is not a competitor of Gaussian, Inc. and that
 it will not use this program in any manner prohibited above.
 ---------------------------------------------------------------
  

 Cite this work as:
 Gaussian 09, Revision D.01,
 M. J. Frisch, G. W. Trucks, H. B. Schlegel, G. E. Scuseria, 
 M. A. Robb, J. R. Cheeseman, G. Scalmani, V. Barone, B. Mennucci, 
 G. A. Petersson, H. Nakatsuji, M. Caricato, X. Li, H. P. Hratchian, 
 A. F. Izmaylov, J. Bloino, G. Zheng, J. L. Sonnenberg, M. Hada, 
 M. Ehara, K. Toyota, R. Fukuda, J. Hasegawa, M. Ishida, T. Nakajima, 
 Y. Honda, O. Kitao, H. Nakai, T. Vreven, J. A. Montgomery, Jr., 
 J. E. Peralta, F. Ogliaro, M. Bearpark, J. J. Heyd, E. Brothers, 
 K. N. Kudin, V. N. Staroverov, T. Keith, R. Kobayashi, J. Normand, 
 K. Raghavachari, A. Rendell, J. C. Burant, S. S. Iyengar, J. Tomasi, 
 M. Cossi, N. Rega, J. M. Millam, M. Klene, J. E. Knox, J. B. Cross, 
 V. Bakken, C. Adamo, J. Jaramillo, R. Gomperts, R. E. Stratmann, 
 O. Yazyev, A. J. Austin, R. Cammi, C. Pomelli, J. W. Ochterski, 
 R. L. Martin, K. Morokuma, V. G. Zakrzewski, G. A. Voth, 
 P. Salvador, J. J. Dannenberg, S. Dapprich, A. D. Daniels, 
 O. Farkas, J. B. Foresman, J. V. Ortiz, J. Cioslowski, 
 and D. J. Fox, Gaussian, Inc., Wallingford CT, 2013.
 
 ******************************************
 Gaussian 09:  AM64L-G09RevD.01 24-Apr-2013
                21-Jun-2017 
 ******************************************
 %chk=HF2PO4-A.chk
 Default route:  MaxDisk=70GB
 -----------------------------------------
 # opt freq b3lyp/6-311g geom=connectivity
 -----------------------------------------
 1/14=-1,18=20,19=15,26=3,38=1,57=2/1,3;
 2/9=110,12=2,17=6,18=5,40=1/2;
 3/5=4,6=6,11=2,16=1,25=1,30=1,71=1,74=-5/1,2,3;
 4//1;
 5/5=2,38=5/2;
 6/7=2,8=2,9=2,10=2,28=1/1;
 7//1,2,3,16;
 1/14=-1,18=20,19=15,26=3/3(2);
 2/9=110/2;
 99//99;
 2/9=110/2;
 3/5=4,6=6,11=2,16=1,25=1,30=1,71=1,74=-5/1,2,3;
 4/5=5,16=3,69=1/1;
 5/5=2,38=5/2;
 7//1,2,3,16;
 1/14=-1,18=20,19=15,26=3/3(-5);
 2/9=110/2;
 6/7=2,8=2,9=2,10=2,19=2,28=1/1;
 99/9=1/99;
 -------------------
 Title Card Required
 -------------------
 Symbolic Z-matrix:
 Charge = -1 Multiplicity = 1
 P                     0.39952   0.7385    0. 
 O                    -1.86851   0.95577  -0.1217 
 O                     1.12599  -0.34959  -0.90776 
 F                     1.5175    1.87736  -0.27176 
 O                    -0.75105   1.87068  -0.32529 
 O                    -1.01149  -0.1981    0.08627 
 F                     0.81714   0.57122   1.50942 
 
 Add virtual bond connecting atoms O5         and O2         Dist= 2.76D+00.
 Add virtual bond connecting atoms O6         and O2         Dist= 2.74D+00.

 GradGradGradGradGradGradGradGradGradGradGradGradGradGradGradGradGradGrad
 Berny optimization.
 Initialization pass.
                           ----------------------------
                           !    Initial Parameters    !
                           ! (Angstroms and Degrees)  !
 --------------------------                            --------------------------
 ! Name  Definition              Value          Derivative Info.                !
 --------------------------------------------------------------------------------
 ! R1    R(1,3)                  1.5924         estimate D2E/DX2                !
 ! R2    R(1,4)                  1.6189         estimate D2E/DX2                !
 ! R3    R(1,5)                  1.6466         estimate D2E/DX2                !
 ! R4    R(1,6)                  1.6958         estimate D2E/DX2                !
 ! R5    R(1,7)                  1.575          estimate D2E/DX2                !
 ! R6    R(2,5)                  1.4585         estimate D2E/DX2                !
 ! R7    R(2,6)                  1.4523         estimate D2E/DX2                !
 ! A1    A(3,1,4)               94.0106         estimate D2E/DX2                !
 ! A2    A(3,1,5)              132.53           estimate D2E/DX2                !
 ! A3    A(3,1,6)               91.7883         estimate D2E/DX2                !
 ! A4    A(3,1,7)              110.657          estimate D2E/DX2                !
 ! A5    A(4,1,5)               88.0333         estimate D2E/DX2                !
 ! A6    A(4,1,7)               93.0081         estimate D2E/DX2                !
 ! A7    A(5,1,6)               78.9543         estimate D2E/DX2                !
 ! A8    A(5,1,7)              116.5904         estimate D2E/DX2                !
 ! A9    A(6,1,7)               96.5007         estimate D2E/DX2                !
 ! A10   A(5,2,6)               93.7992         estimate D2E/DX2                !
 ! A11   A(1,5,2)               94.3854         estimate D2E/DX2                !
 ! A12   A(1,6,2)               92.5739         estimate D2E/DX2                !
 ! A13   L(4,1,6,3,-1)         185.7988         estimate D2E/DX2                !
 ! A14   L(4,1,6,3,-2)         192.3739         estimate D2E/DX2                !
 ! D1    D(3,1,5,2)             86.0035         estimate D2E/DX2                !
 ! D2    D(4,1,5,2)            179.6423         estimate D2E/DX2                !
 ! D3    D(6,1,5,2)              3.8152         estimate D2E/DX2                !
 ! D4    D(7,1,5,2)            -87.9775         estimate D2E/DX2                !
 ! D5    D(3,1,6,2)           -136.9008         estimate D2E/DX2                !
 ! D6    D(5,1,6,2)             -3.8242         estimate D2E/DX2                !
 ! D7    D(7,1,6,2)            112.0735         estimate D2E/DX2                !
 ! D8    D(6,2,5,1)             -4.383          estimate D2E/DX2                !
 ! D9    D(5,2,6,1)              4.2476         estimate D2E/DX2                !
 --------------------------------------------------------------------------------
 Trust Radius=3.00D-01 FncErr=1.00D-07 GrdErr=1.00D-06
 Number of steps in this run=     40 maximum allowed number of steps=    100.
 GradGradGradGradGradGradGradGradGradGradGradGradGradGradGradGradGradGrad

                          Input orientation:                          
 ---------------------------------------------------------------------
 Center     Atomic      Atomic             Coordinates (Angstroms)
 Number     Number       Type             X           Y           Z
 ---------------------------------------------------------------------
      1         15           0        0.399516    0.738499    0.000000
      2          8           0       -1.868506    0.955771   -0.121696
      3          8           0        1.125989   -0.349593   -0.907761
      4          9           0        1.517504    1.877358   -0.271764
      5          8           0       -0.751045    1.870680   -0.325286
      6          8           0       -1.011492   -0.198101    0.086273
      7          9           0        0.817143    0.571225    1.509417
 ---------------------------------------------------------------------
                    Distance matrix (angstroms):
                    1          2          3          4          5
     1  P    0.000000
     2  O    2.281653   0.000000
     3  O    1.592400   3.359892   0.000000
     4  F    1.618874   3.512393   2.348848   0.000000
     5  O    1.646644   1.458501   2.965155   2.269190   0.000000
     6  O    1.695761   1.452289   2.362177   3.291131   2.125340
     7  F    1.575034   3.165615   2.605003   2.317131   2.741155
                    6          7
     6  O    0.000000
     7  F    2.441538   0.000000
 Stoichiometry    F2O4P(1-)
 Framework group  C1[X(F2O4P)]
 Deg. of freedom    15
 Full point group                 C1      NOp   1
 Largest Abelian subgroup         C1      NOp   1
 Largest concise Abelian subgroup C1      NOp   1
                         Standard orientation:                         
 ---------------------------------------------------------------------
 Center     Atomic      Atomic             Coordinates (Angstroms)
 Number     Number       Type             X           Y           Z
 ---------------------------------------------------------------------
      1         15           0        0.289132   -0.059998   -0.034098
      2          8           0       -1.971273    0.250580   -0.027058
      3          8           0        0.931665   -1.070446   -1.083804
      4          9           0        1.440093    1.060345   -0.236269
      5          8           0       -0.827078    1.141141   -0.185002
      6          8           0       -1.153945   -0.949017    0.018631
      7          9           0        0.763024   -0.402356    1.428417
 ---------------------------------------------------------------------
 Rotational constants (GHZ):      3.6544332      2.2923097      2.1019443
 Standard basis: 6-311G (5D, 7F)
 There are    99 symmetry adapted cartesian basis functions of A   symmetry.
 There are    99 symmetry adapted basis functions of A   symmetry.
    99 basis functions,   196 primitive gaussians,    99 cartesian basis functions
    33 alpha electrons       33 beta electrons
       nuclear repulsion energy       461.6214229205 Hartrees.



 Warning!  P  atom    1 may be hypervalent but has no d functions.



 NAtoms=    7 NActive=    7 NUniq=    7 SFac= 1.00D+00 NAtFMM=   60 NAOKFM=F Big=F
 Integral buffers will be    131072 words long.
 Raffenetti 2 integral format.
 Two-electron integral symmetry is turned on.
 One-electron integrals computed using PRISM.
 NBasis=    99 RedAO= T EigKep=  1.51D-02  NBF=    99
 NBsUse=    99 1.00D-06 EigRej= -1.00D+00 NBFU=    99
 ExpMin= 6.85D-02 ExpMax= 7.75D+04 ExpMxC= 2.65D+03 IAcc=2 IRadAn=         4 AccDes= 0.00D+00
 Harris functional with IExCor=  402 and IRadAn=       4 diagonalized for initial guess.
 HarFok:  IExCor=  402 AccDes= 0.00D+00 IRadAn=         4 IDoV= 1 UseB2=F ITyADJ=14
 ICtDFT=  3500011 ScaDFX=  1.000000  1.000000  1.000000  1.000000
 FoFCou: FMM=F IPFlag=           0 FMFlag=      100000 FMFlg1=           0
         NFxFlg=           0 DoJE=T BraDBF=F KetDBF=T FulRan=T
         wScrn=  0.000000 ICntrl=     500 IOpCl=  0 I1Cent=   200000004 NGrid=           0
         NMat0=    1 NMatS0=      1 NMatT0=    0 NMatD0=    1 NMtDS0=    0 NMtDT0=    0
 Petite list used in FoFCou.
 Keep R1 ints in memory in canonical form, NReq=13222358.
 Requested convergence on RMS density matrix=1.00D-08 within 128 cycles.
 Requested convergence on MAX density matrix=1.00D-06.
 Requested convergence on             energy=1.00D-06.
 No special actions if energy rises.
 Integral accuracy reduced to 1.0D-05 until final iterations.
 EnCoef did     2 forward-backward iterations
 Initial convergence to 1.0D-05 achieved.  Increase integral accuracy.
 SCF Done:  E(RB3LYP) =  -841.802347589     A.U. after   17 cycles
            NFock= 17  Conv=0.51D-08     -V/T= 2.0003

 **********************************************************************

            Population analysis using the SCF density.

 **********************************************************************

 Orbital symmetries:
       Occupied  (A) (A) (A) (A) (A) (A) (A) (A) (A) (A) (A) (A)
                 (A) (A) (A) (A) (A) (A) (A) (A) (A) (A) (A) (A)
                 (A) (A) (A) (A) (A) (A) (A) (A) (A)
       Virtual   (A) (A) (A) (A) (A) (A) (A) (A) (A) (A) (A) (A)
                 (A) (A) (A) (A) (A) (A) (A) (A) (A) (A) (A) (A)
                 (A) (A) (A) (A) (A) (A) (A) (A) (A) (A) (A) (A)
                 (A) (A) (A) (A) (A) (A) (A) (A) (A) (A) (A) (A)
                 (A) (A) (A) (A) (A) (A) (A) (A) (A) (A) (A) (A)
                 (A) (A) (A) (A) (A) (A)
 The electronic state is 1-A.
 Alpha  occ. eigenvalues --  -77.11837 -24.53735 -24.48759 -19.09736 -19.06618
 Alpha  occ. eigenvalues --  -19.02637 -18.88469  -6.60907  -4.77091  -4.77007
 Alpha  occ. eigenvalues --   -4.76735  -1.12282  -1.08069  -1.03742  -0.87137
 Alpha  occ. eigenvalues --   -0.78674  -0.71692  -0.46865  -0.43210  -0.37594
 Alpha  occ. eigenvalues --   -0.35957  -0.33131  -0.32264  -0.31057  -0.28435
 Alpha  occ. eigenvalues --   -0.25337  -0.24328  -0.21549  -0.20386  -0.16956
 Alpha  occ. eigenvalues --   -0.12940  -0.09660  -0.07195
 Alpha virt. eigenvalues --    0.11206   0.13798   0.19685   0.25638   0.29849
 Alpha virt. eigenvalues --    0.31446   0.34826   0.41471   0.42157   0.47375
 Alpha virt. eigenvalues --    0.82925   0.86759   0.88455   0.90493   0.91426
 Alpha virt. eigenvalues --    0.96757   0.98587   1.00651   1.01762   1.05262
 Alpha virt. eigenvalues --    1.09524   1.10859   1.14344   1.22300   1.24213
 Alpha virt. eigenvalues --    1.31017   1.33740   1.37076   1.41836   1.49228
 Alpha virt. eigenvalues --    1.50534   1.58263   1.63217   1.72368   1.74065
 Alpha virt. eigenvalues --    1.86326   1.97895   4.49833   4.60253   4.80000
 Alpha virt. eigenvalues --    4.83430   4.87468   4.93767   4.98366   5.03434
 Alpha virt. eigenvalues --    5.05371   5.08189   5.27405   5.37615   6.12502
 Alpha virt. eigenvalues --    6.21820   6.23435   6.26166   6.27799   6.35175
 Alpha virt. eigenvalues --    6.88292  13.81263  13.91685  13.97311  49.81327
 Alpha virt. eigenvalues --   49.86315  49.90238  50.01252  66.82466  66.88040
 Alpha virt. eigenvalues --  162.91733
          Condensed to atoms (all electrons):
               1          2          3          4          5          6
     1  P   12.712647  -0.076558   0.422942   0.087813   0.047559   0.110836
     2  O   -0.076558   8.232895   0.005367   0.001914  -0.028575  -0.052946
     3  O    0.422942   0.005367   8.542612  -0.075434  -0.012998  -0.092584
     4  F    0.087813   0.001914  -0.075434   9.553568  -0.047379   0.004716
     5  O    0.047559  -0.028575  -0.012998  -0.047379   8.648074  -0.129556
     6  O    0.110836  -0.052946  -0.092584   0.004716  -0.129556   8.615322
     7  F    0.059222   0.004309  -0.040150  -0.042094  -0.025931  -0.049761
               7
     1  P    0.059222
     2  O    0.004309
     3  O   -0.040150
     4  F   -0.042094
     5  O   -0.025931
     6  O   -0.049761
     7  F    9.553458
 Mulliken charges:
               1
     1  P    1.635537
     2  O   -0.086406
     3  O   -0.749755
     4  F   -0.483103
     5  O   -0.451194
     6  O   -0.406027
     7  F   -0.459052
 Sum of Mulliken charges =  -1.00000
 Mulliken charges with hydrogens summed into heavy atoms:
               1
     1  P    1.635537
     2  O   -0.086406
     3  O   -0.749755
     4  F   -0.483103
     5  O   -0.451194
     6  O   -0.406027
     7  F   -0.459052
 Electronic spatial extent (au):  <R**2>=            648.0453
 Charge=             -1.0000 electrons
 Dipole moment (field-independent basis, Debye):
    X=             -1.6667    Y=              1.8627    Z=              2.1964  Tot=              3.3274
 Quadrupole moment (field-independent basis, Debye-Ang):
   XX=            -57.8693   YY=            -55.9239   ZZ=            -52.7410
   XY=              0.6385   XZ=              2.3214   YZ=             -2.3552
 Traceless Quadrupole moment (field-independent basis, Debye-Ang):
   XX=             -2.3579   YY=             -0.4125   ZZ=              2.7704
   XY=              0.6385   XZ=              2.3214   YZ=             -2.3552
 Octapole moment (field-independent basis, Debye-Ang**2):
  XXX=              3.6775  YYY=              4.9356  ZZZ=              5.5307  XYY=             -1.0234
  XXY=              0.8890  XXZ=              5.5862  XZZ=             -5.2764  YZZ=              8.0353
  YYZ=              7.6859  XYZ=             -2.7352
 Hexadecapole moment (field-independent basis, Debye-Ang**3):
 XXXX=           -384.2110 YYYY=           -217.3496 ZZZZ=           -164.1462 XXXY=              3.0732
 XXXZ=              8.8770 YYYX=              4.7747 YYYZ=             -8.7776 ZZZX=              4.6679
 ZZZY=             -7.6372 XXYY=           -105.5878 XXZZ=            -91.8929 YYZZ=            -64.6636
 XXYZ=             -3.6105 YYXZ=              5.8645 ZZXY=              7.1088
 N-N= 4.616214229205D+02 E-N=-2.936660696487D+03  KE= 8.415276497460D+02
 Calling FoFJK, ICntrl=      2127 FMM=F ISym2X=0 I1Cent= 0 IOpClX= 0 NMat=1 NMatS=1 NMatT=0.
 ***** Axes restored to original set *****
 -------------------------------------------------------------------
 Center     Atomic                   Forces (Hartrees/Bohr)
 Number     Number              X              Y              Z
 -------------------------------------------------------------------
      1       15           0.096378521   -0.101078240   -0.098322761
      2        8          -0.077776015    0.015354635    0.000063955
      3        8           0.001329167   -0.002780152   -0.003729005
      4        9           0.047003346    0.075520761    0.000439847
      5        8          -0.026379560    0.070781632   -0.011356634
      6        8          -0.053740905   -0.060863480    0.021010237
      7        9           0.013185446    0.003064845    0.091894361
 -------------------------------------------------------------------
 Cartesian Forces:  Max     0.101078240 RMS     0.055588095

 GradGradGradGradGradGradGradGradGradGradGradGradGradGradGradGradGradGrad
 Berny optimization.
 FormGI is forming the generalized inverse of G from B-inverse, IUseBI=4.
 Internal  Forces:  Max     0.091234462 RMS     0.036560035
 Search for a local minimum.
 Step number   1 out of a maximum of   40
 All quantities printed in internal units (Hartrees-Bohrs-Radians)
 Mixed Optimization -- RFO/linear search
 Second derivative matrix not updated -- first step.
 ITU=  0
     Eigenvalues ---    0.01986   0.07219   0.11937   0.14097   0.16014
     Eigenvalues ---    0.19014   0.19516   0.24999   0.33950   0.35889
     Eigenvalues ---    0.36824   0.41715   0.47735   0.52716   0.56365
 RFO step:  Lambda=-8.76118099D-02 EMin= 1.98611060D-02
 Linear search not attempted -- first point.
 Maximum step size (   0.300) exceeded in Quadratic search.
    -- Step size scaled by   0.661
 Iteration  1 RMS(Cart)=  0.05418497 RMS(Int)=  0.00200920
 Iteration  2 RMS(Cart)=  0.00199621 RMS(Int)=  0.00069569
 Iteration  3 RMS(Cart)=  0.00000319 RMS(Int)=  0.00069568
 Iteration  4 RMS(Cart)=  0.00000000 RMS(Int)=  0.00069568
 Variable       Old X    -DE/DX   Delta X   Delta X   Delta X     New X
                                 (Linear)    (Quad)   (Total)
    R1        3.00920   0.00463   0.00000   0.00498   0.00498   3.01418
    R2        3.05923   0.08552   0.00000   0.10002   0.10002   3.15925
    R3        3.11171   0.08300   0.00000   0.10968   0.11006   3.22176
    R4        3.20452   0.09026   0.00000   0.13590   0.13626   3.34079
    R5        2.97638   0.09123   0.00000   0.09256   0.09256   3.06895
    R6        2.75617   0.04478   0.00000   0.06012   0.05970   2.81587
    R7        2.74443   0.05062   0.00000   0.06641   0.06596   2.81039
    A1        1.64079   0.01817   0.00000   0.06144   0.06126   1.70205
    A2        2.31308   0.00365   0.00000   0.01292   0.01325   2.32633
    A3        1.60201   0.01953   0.00000   0.05462   0.05423   1.65623
    A4        1.93133   0.01604   0.00000   0.03722   0.03715   1.96848
    A5        1.53647  -0.00794   0.00000  -0.03691  -0.03794   1.49853
    A6        1.62330  -0.00595   0.00000  -0.02165  -0.02347   1.59983
    A7        1.37801  -0.02350   0.00000  -0.04788  -0.04752   1.33049
    A8        2.03489  -0.02027   0.00000  -0.05084  -0.05107   1.98381
    A9        1.68425  -0.00248   0.00000  -0.01742  -0.01960   1.66466
   A10        1.63710  -0.00888   0.00000  -0.02797  -0.02902   1.60808
   A11        1.64734   0.01894   0.00000   0.04549   0.04571   1.69304
   A12        1.61572   0.01426   0.00000   0.03293   0.03303   1.64875
   A13        3.24280   0.03770   0.00000   0.11605   0.11549   3.35829
   A14        3.35756   0.00839   0.00000   0.00952   0.00980   3.36736
    D1        1.50104  -0.00183   0.00000   0.00937   0.00948   1.51053
    D2        3.13535   0.01563   0.00000   0.05922   0.05830  -3.08954
    D3        0.06659  -0.00551   0.00000  -0.01703  -0.01651   0.05008
    D4       -1.53550   0.00529   0.00000   0.01725   0.01680  -1.51869
    D5       -2.38937   0.00333   0.00000   0.01038   0.01050  -2.37887
    D6       -0.06674   0.00572   0.00000   0.01736   0.01679  -0.04995
    D7        1.95605  -0.01529   0.00000  -0.03317  -0.03239   1.92366
    D8       -0.07650   0.00598   0.00000   0.01904   0.01863  -0.05787
    D9        0.07413  -0.00597   0.00000  -0.01913  -0.01858   0.05555
         Item               Value     Threshold  Converged?
 Maximum Force            0.091234     0.000450     NO 
 RMS     Force            0.036560     0.000300     NO 
 Maximum Displacement     0.126761     0.001800     NO 
 RMS     Displacement     0.054119     0.001200     NO 
 Predicted change in Energy=-4.293022D-02
 GradGradGradGradGradGradGradGradGradGradGradGradGradGradGradGradGradGrad

                          Input orientation:                          
 ---------------------------------------------------------------------
 Center     Atomic      Atomic             Coordinates (Angstroms)
 Number     Number       Type             X           Y           Z
 ---------------------------------------------------------------------
      1         15           0        0.443281    0.699012   -0.028754
      2          8           0       -1.935585    0.981202   -0.117851
      3          8           0        1.172210   -0.388911   -0.939368
      4          9           0        1.538662    1.941818   -0.253462
      5          8           0       -0.758530    1.867681   -0.339384
      6          8           0       -1.069064   -0.206439    0.106643
      7          9           0        0.838133    0.571474    1.541359
 ---------------------------------------------------------------------
                    Distance matrix (angstroms):
                    1          2          3          4          5
     1  P    0.000000
     2  O    2.397201   0.000000
     3  O    1.595034   3.494352   0.000000
     4  F    1.671801   3.607154   2.457041   0.000000
     5  O    1.704883   1.490094   3.029842   2.299993   0.000000
     6  O    1.767869   1.487195   2.480069   3.397780   2.144142
     7  F    1.624016   3.257970   2.681036   2.364310   2.786876
                    6          7
     6  O    0.000000
     7  F    2.510171   0.000000
 Stoichiometry    F2O4P(1-)
 Framework group  C1[X(F2O4P)]
 Deg. of freedom    15
 Full point group                 C1      NOp   1
 Largest Abelian subgroup         C1      NOp   1
 Largest concise Abelian subgroup C1      NOp   1
                         Standard orientation:                         
 ---------------------------------------------------------------------
 Center     Atomic      Atomic             Coordinates (Angstroms)
 Number     Number       Type             X           Y           Z
 ---------------------------------------------------------------------
      1         15           0        0.325472   -0.096160   -0.060461
      2          8           0       -2.042549    0.276029   -0.037558
      3          8           0        0.979008   -1.141682   -1.072344
      4          9           0        1.458689    1.119774   -0.240014
      5          8           0       -0.841261    1.133639   -0.241994
      6          8           0       -1.214473   -0.954630    0.069757
      7          9           0        0.771545   -0.349157    1.480461
 ---------------------------------------------------------------------
 Rotational constants (GHZ):      3.4647650      2.1579369      1.9772753
 Standard basis: 6-311G (5D, 7F)
 There are    99 symmetry adapted cartesian basis functions of A   symmetry.
 There are    99 symmetry adapted basis functions of A   symmetry.
    99 basis functions,   196 primitive gaussians,    99 cartesian basis functions
    33 alpha electrons       33 beta electrons
       nuclear repulsion energy       448.7443089456 Hartrees.



 Warning!  P  atom    1 may be hypervalent but has no d functions.



 NAtoms=    7 NActive=    7 NUniq=    7 SFac= 1.00D+00 NAtFMM=   60 NAOKFM=F Big=F
 Integral buffers will be    131072 words long.
 Raffenetti 2 integral format.
 Two-electron integral symmetry is turned on.
 One-electron integrals computed using PRISM.
 NBasis=    99 RedAO= T EigKep=  1.66D-02  NBF=    99
 NBsUse=    99 1.00D-06 EigRej= -1.00D+00 NBFU=    99
 Initial guess from the checkpoint file:  "HF2PO4-A.chk"
 B after Tr=     0.000000    0.000000    0.000000
         Rot=    0.999841    0.017522    0.003072   -0.001034 Ang=   2.04 deg.
 ExpMin= 6.85D-02 ExpMax= 7.75D+04 ExpMxC= 2.65D+03 IAcc=2 IRadAn=         4 AccDes= 0.00D+00
 Harris functional with IExCor=  402 and IRadAn=       4 diagonalized for initial guess.
 HarFok:  IExCor=  402 AccDes= 0.00D+00 IRadAn=         4 IDoV= 1 UseB2=F ITyADJ=14
 ICtDFT=  3500011 ScaDFX=  1.000000  1.000000  1.000000  1.000000
 FoFCou: FMM=F IPFlag=           0 FMFlag=      100000 FMFlg1=           0
         NFxFlg=           0 DoJE=T BraDBF=F KetDBF=T FulRan=T
         wScrn=  0.000000 ICntrl=     500 IOpCl=  0 I1Cent=   200000004 NGrid=           0
         NMat0=    1 NMatS0=      1 NMatT0=    0 NMatD0=    1 NMtDS0=    0 NMtDT0=    0
 Petite list used in FoFCou.
 Keep R1 ints in memory in canonical form, NReq=13222358.
 Requested convergence on RMS density matrix=1.00D-08 within 128 cycles.
 Requested convergence on MAX density matrix=1.00D-06.
 Requested convergence on             energy=1.00D-06.
 No special actions if energy rises.
 Integral accuracy reduced to 1.0D-05 until final iterations.
 Initial convergence to 1.0D-05 achieved.  Increase integral accuracy.
 SCF Done:  E(RB3LYP) =  -841.845710616     A.U. after   15 cycles
            NFock= 15  Conv=0.32D-08     -V/T= 2.0011
 Calling FoFJK, ICntrl=      2127 FMM=F ISym2X=0 I1Cent= 0 IOpClX= 0 NMat=1 NMatS=1 NMatT=0.
 ***** Axes restored to original set *****
 -------------------------------------------------------------------
 Center     Atomic                   Forces (Hartrees/Bohr)
 Number     Number              X              Y              Z
 -------------------------------------------------------------------
      1       15           0.053953101   -0.066150985   -0.066198581
      2        8          -0.025571500    0.005477608    0.001310717
      3        8          -0.003859516    0.006476859    0.003763575
      4        9           0.024485046    0.041898873    0.001348476
      5        8          -0.018526472    0.048690057   -0.008976510
      6        8          -0.036677655   -0.038433657    0.014740622
      7        9           0.006196997    0.002041246    0.054011701
 -------------------------------------------------------------------
 Cartesian Forces:  Max     0.066198581 RMS     0.033506696

 GradGradGradGradGradGradGradGradGradGradGradGradGradGradGradGradGradGrad
 Berny optimization.
 Using GEDIIS/GDIIS optimizer.
 FormGI is forming the generalized inverse of G from B-inverse, IUseBI=4.
 Internal  Forces:  Max     0.053563269 RMS     0.020003322
 Search for a local minimum.
 Step number   2 out of a maximum of   40
 All quantities printed in internal units (Hartrees-Bohrs-Radians)
 Mixed Optimization -- RFO/linear search
 Update second derivatives using D2CorX and points    1    2
 DE= -4.34D-02 DEPred=-4.29D-02 R= 1.01D+00
 TightC=F SS=  1.41D+00  RLast= 3.10D-01 DXNew= 5.0454D-01 9.3103D-01
 Trust test= 1.01D+00 RLast= 3.10D-01 DXMaxT set to 5.05D-01
 ITU=  1  0
 Use linear search instead of GDIIS.
     Eigenvalues ---    0.01978   0.07184   0.11657   0.14564   0.16762
     Eigenvalues ---    0.19154   0.19671   0.24895   0.32160   0.35648
     Eigenvalues ---    0.37571   0.39500   0.46166   0.53602   0.54595
 RFO step:  Lambda=-1.29562942D-02 EMin= 1.97782854D-02
 Quartic linear search produced a step of  1.49210.
 Iteration  1 RMS(Cart)=  0.08476270 RMS(Int)=  0.00982615
 Iteration  2 RMS(Cart)=  0.00944486 RMS(Int)=  0.00282936
 Iteration  3 RMS(Cart)=  0.00007153 RMS(Int)=  0.00282835
 Iteration  4 RMS(Cart)=  0.00000009 RMS(Int)=  0.00282835
 Variable       Old X    -DE/DX   Delta X   Delta X   Delta X     New X
                                 (Linear)    (Quad)   (Total)
    R1        3.01418  -0.00833   0.00743  -0.04910  -0.04167   2.97251
    R2        3.15925   0.04701   0.14924   0.02003   0.16927   3.32852
    R3        3.22176   0.04802   0.16422   0.03713   0.20229   3.42405
    R4        3.34079   0.05087   0.20332   0.04244   0.24692   3.58771
    R5        3.06895   0.05356   0.13811   0.03023   0.16835   3.23729
    R6        2.81587   0.02108   0.08908  -0.00547   0.08227   2.89814
    R7        2.81039   0.02237   0.09842  -0.01651   0.08069   2.89108
    A1        1.70205   0.00918   0.09140   0.02099   0.11148   1.81353
    A2        2.32633   0.00241   0.01976   0.00609   0.02501   2.35134
    A3        1.65623   0.00807   0.08091   0.02644   0.10532   1.76155
    A4        1.96848   0.00899   0.05543   0.01840   0.07432   2.04279
    A5        1.49853  -0.00698  -0.05661  -0.03679  -0.09759   1.40094
    A6        1.59983  -0.00303  -0.03502  -0.02814  -0.07217   1.52766
    A7        1.33049  -0.00584  -0.07090   0.05647  -0.01404   1.31645
    A8        1.98381  -0.01147  -0.07620  -0.02041  -0.09672   1.88709
    A9        1.66466  -0.00515  -0.02924  -0.06186  -0.09841   1.56625
   A10        1.60808   0.00754  -0.04331   0.10797   0.06172   1.66980
   A11        1.69304  -0.00011   0.06820  -0.08414  -0.01570   1.67734
   A12        1.64875  -0.00127   0.04928  -0.07940  -0.02954   1.61921
   A13        3.35829   0.01725   0.17232   0.04743   0.21680   3.57508
   A14        3.36736   0.00136   0.01463  -0.07218  -0.05566   3.31170
    D1        1.51053   0.00185   0.01415   0.08119   0.09638   1.60691
    D2       -3.08954   0.00799   0.08698   0.07566   0.15830  -2.93124
    D3        0.05008  -0.00306  -0.02464  -0.00922  -0.03222   0.01785
    D4       -1.51869   0.00244   0.02507   0.03022   0.05590  -1.46279
    D5       -2.37887   0.00199   0.01566   0.01570   0.02837  -2.35050
    D6       -0.04995   0.00308   0.02506   0.00879   0.03213  -0.01782
    D7        1.92366  -0.00756  -0.04833   0.00166  -0.04224   1.88142
    D8       -0.05787   0.00318   0.02780   0.00854   0.03632  -0.02155
    D9        0.05555  -0.00308  -0.02772  -0.00804  -0.03508   0.02047
         Item               Value     Threshold  Converged?
 Maximum Force            0.053563     0.000450     NO 
 RMS     Force            0.020003     0.000300     NO 
 Maximum Displacement     0.188505     0.001800     NO 
 RMS     Displacement     0.089907     0.001200     NO 
 Predicted change in Energy=-1.815292D-02
 GradGradGradGradGradGradGradGradGradGradGradGradGradGradGradGradGradGrad

                          Input orientation:                          
 ---------------------------------------------------------------------
 Center     Atomic      Atomic             Coordinates (Angstroms)
 Number     Number       Type             X           Y           Z
 ---------------------------------------------------------------------
      1         15           0        0.500250    0.622048   -0.107992
      2          8           0       -1.963311    1.017799   -0.088381
      3          8           0        1.235267   -0.437115   -1.009211
      4          9           0        1.539843    2.041570   -0.189499
      5          8           0       -0.749383    1.900272   -0.404042
      6          8           0       -1.157855   -0.251689    0.194841
      7          9           0        0.824297    0.572952    1.573466
 ---------------------------------------------------------------------
                    Distance matrix (angstroms):
                    1          2          3          4          5
     1  P    0.000000
     2  O    2.495223   0.000000
     3  O    1.572983   3.632576   0.000000
     4  F    1.761374   3.651085   2.628417   0.000000
     5  O    1.811928   1.533630   3.125451   2.303595   0.000000
     6  O    1.898535   1.529894   2.685360   3.561506   2.270780
     7  F    1.713101   3.275726   2.803454   2.403516   2.854607
                    6          7
     6  O    0.000000
     7  F    2.551384   0.000000
 Stoichiometry    F2O4P(1-)
 Framework group  C1[X(F2O4P)]
 Deg. of freedom    15
 Full point group                 C1      NOp   1
 Largest Abelian subgroup         C1      NOp   1
 Largest concise Abelian subgroup C1      NOp   1
                         Standard orientation:                         
 ---------------------------------------------------------------------
 Center     Atomic      Atomic             Coordinates (Angstroms)
 Number     Number       Type             X           Y           Z
 ---------------------------------------------------------------------
      1         15           0        0.374238   -0.170548   -0.120532
      2          8           0       -2.069923    0.329732   -0.076541
      3          8           0        1.059674   -1.232105   -1.057307
      4          9           0        1.473644    1.204904   -0.163890
      5          8           0       -0.820316    1.168590   -0.371198
      6          8           0       -1.318802   -0.981234    0.163790
      7          9           0        0.702063   -0.285087    1.557004
 ---------------------------------------------------------------------
 Rotational constants (GHZ):      3.1415940      2.0410484      1.8492223
 Standard basis: 6-311G (5D, 7F)
 There are    99 symmetry adapted cartesian basis functions of A   symmetry.
 There are    99 symmetry adapted basis functions of A   symmetry.
    99 basis functions,   196 primitive gaussians,    99 cartesian basis functions
    33 alpha electrons       33 beta electrons
       nuclear repulsion energy       431.9833975689 Hartrees.



 Warning!  P  atom    1 may be hypervalent but has no d functions.



 NAtoms=    7 NActive=    7 NUniq=    7 SFac= 1.00D+00 NAtFMM=   60 NAOKFM=F Big=F
 Integral buffers will be    131072 words long.
 Raffenetti 2 integral format.
 Two-electron integral symmetry is turned on.
 One-electron integrals computed using PRISM.
 NBasis=    99 RedAO= T EigKep=  1.78D-02  NBF=    99
 NBsUse=    99 1.00D-06 EigRej= -1.00D+00 NBFU=    99
 Initial guess from the checkpoint file:  "HF2PO4-A.chk"
 B after Tr=     0.000000    0.000000    0.000000
         Rot=    0.999677    0.019562    0.015866    0.003282 Ang=   2.91 deg.
 ExpMin= 6.85D-02 ExpMax= 7.75D+04 ExpMxC= 2.65D+03 IAcc=2 IRadAn=         4 AccDes= 0.00D+00
 Harris functional with IExCor=  402 and IRadAn=       4 diagonalized for initial guess.
 HarFok:  IExCor=  402 AccDes= 0.00D+00 IRadAn=         4 IDoV= 1 UseB2=F ITyADJ=14
 ICtDFT=  3500011 ScaDFX=  1.000000  1.000000  1.000000  1.000000
 FoFCou: FMM=F IPFlag=           0 FMFlag=      100000 FMFlg1=           0
         NFxFlg=           0 DoJE=T BraDBF=F KetDBF=T FulRan=T
         wScrn=  0.000000 ICntrl=     500 IOpCl=  0 I1Cent=   200000004 NGrid=           0
         NMat0=    1 NMatS0=      1 NMatT0=    0 NMatD0=    1 NMtDS0=    0 NMtDT0=    0
 Petite list used in FoFCou.
 Keep R1 ints in memory in canonical form, NReq=13222358.
 Requested convergence on RMS density matrix=1.00D-08 within 128 cycles.
 Requested convergence on MAX density matrix=1.00D-06.
 Requested convergence on             energy=1.00D-06.
 No special actions if energy rises.
 Integral accuracy reduced to 1.0D-05 until final iterations.
 Initial convergence to 1.0D-05 achieved.  Increase integral accuracy.
 SCF Done:  E(RB3LYP) =  -841.870705429     A.U. after   16 cycles
            NFock= 16  Conv=0.72D-08     -V/T= 2.0019
 Calling FoFJK, ICntrl=      2127 FMM=F ISym2X=0 I1Cent= 0 IOpClX= 0 NMat=1 NMatS=1 NMatT=0.
 ***** Axes restored to original set *****
 -------------------------------------------------------------------
 Center     Atomic                   Forces (Hartrees/Bohr)
 Number     Number              X              Y              Z
 -------------------------------------------------------------------
      1       15           0.005225372    0.002313527    0.001439297
      2        8           0.000010723   -0.002681376   -0.000106925
      3        8          -0.000868566    0.004327930    0.000343809
      4        9           0.008692820    0.000205089   -0.003871328
      5        8          -0.008814179   -0.005133360   -0.002146931
      6        8          -0.006727838    0.004580341   -0.002142685
      7        9           0.002481669   -0.003612151    0.006484763
 -------------------------------------------------------------------
 Cartesian Forces:  Max     0.008814179 RMS     0.004325292

 GradGradGradGradGradGradGradGradGradGradGradGradGradGradGradGradGradGrad
 Berny optimization.
 Using GEDIIS/GDIIS optimizer.
 FormGI is forming the generalized inverse of G from B-inverse, IUseBI=4.
 Internal  Forces:  Max     0.011412861 RMS     0.004500830
 Search for a local minimum.
 Step number   3 out of a maximum of   40
 All quantities printed in internal units (Hartrees-Bohrs-Radians)
 Mixed Optimization -- RFO/linear search
 Update second derivatives using D2CorX and points    2    3
 DE= -2.50D-02 DEPred=-1.82D-02 R= 1.38D+00
 TightC=F SS=  1.41D+00  RLast= 5.81D-01 DXNew= 8.4853D-01 1.7422D+00
 Trust test= 1.38D+00 RLast= 5.81D-01 DXMaxT set to 8.49D-01
 ITU=  1  1  0
 Use linear search instead of GDIIS.
     Eigenvalues ---    0.01942   0.06924   0.11346   0.14788   0.16738
     Eigenvalues ---    0.18556   0.18892   0.24280   0.28326   0.35436
     Eigenvalues ---    0.37233   0.39187   0.45888   0.53609   0.54275
 RFO step:  Lambda=-2.63599615D-03 EMin= 1.94150406D-02
 Quartic linear search produced a step of -0.02530.
 Iteration  1 RMS(Cart)=  0.03049262 RMS(Int)=  0.00056517
 Iteration  2 RMS(Cart)=  0.00045941 RMS(Int)=  0.00016515
 Iteration  3 RMS(Cart)=  0.00000011 RMS(Int)=  0.00016515
 Variable       Old X    -DE/DX   Delta X   Delta X   Delta X     New X
                                 (Linear)    (Quad)   (Total)
    R1        2.97251  -0.00352   0.00105  -0.00910  -0.00804   2.96446
    R2        3.32852   0.00548  -0.00428   0.02174   0.01745   3.34597
    R3        3.42405   0.00523  -0.00512   0.02469   0.01964   3.44369
    R4        3.58771   0.00596  -0.00625   0.03099   0.02481   3.61252
    R5        3.23729   0.00694  -0.00426   0.02266   0.01840   3.25569
    R6        2.89814  -0.00172  -0.00208   0.00026  -0.00190   2.89624
    R7        2.89108  -0.00500  -0.00204  -0.00836  -0.01049   2.88059
    A1        1.81353  -0.00806  -0.00282  -0.03611  -0.03876   1.77477
    A2        2.35134  -0.00310  -0.00063  -0.01897  -0.01983   2.33151
    A3        1.76155   0.00141  -0.00266  -0.00673  -0.00970   1.75186
    A4        2.04279  -0.00176  -0.00188  -0.00301  -0.00504   2.03775
    A5        1.40094   0.01141   0.00247   0.05151   0.05380   1.45474
    A6        1.52766   0.00228   0.00183   0.02102   0.02273   1.55039
    A7        1.31645  -0.00645   0.00036  -0.02157  -0.02121   1.29524
    A8        1.88709   0.00458   0.00245   0.02001   0.02232   1.90941
    A9        1.56625   0.00178   0.00249   0.00366   0.00634   1.57259
   A10        1.66980  -0.00310  -0.00156  -0.01007  -0.01177   1.65803
   A11        1.67734   0.00452   0.00040   0.01600   0.01649   1.69383
   A12        1.61921   0.00498   0.00075   0.01553   0.01636   1.63557
   A13        3.57508  -0.00665  -0.00548  -0.04284  -0.04845   3.52663
   A14        3.31170   0.00023   0.00141   0.00423   0.00540   3.31710
    D1        1.60691  -0.00237  -0.00244  -0.02386  -0.02593   1.58098
    D2       -2.93124  -0.00258  -0.00400  -0.02444  -0.02875  -2.95999
    D3        0.01785   0.00123   0.00082   0.00241   0.00310   0.02096
    D4       -1.46279   0.00288  -0.00141   0.01183   0.01071  -1.45208
    D5       -2.35050   0.00233  -0.00072   0.01639   0.01559  -2.33491
    D6       -0.01782  -0.00124  -0.00081  -0.00245  -0.00314  -0.02096
    D7        1.88142   0.00362   0.00107   0.01932   0.02033   1.90176
    D8       -0.02155  -0.00151  -0.00092  -0.00302  -0.00384  -0.02539
    D9        0.02047   0.00143   0.00089   0.00282   0.00360   0.02407
         Item               Value     Threshold  Converged?
 Maximum Force            0.011413     0.000450     NO 
 RMS     Force            0.004501     0.000300     NO 
 Maximum Displacement     0.106696     0.001800     NO 
 RMS     Displacement     0.030429     0.001200     NO 
 Predicted change in Energy=-1.337611D-03
 GradGradGradGradGradGradGradGradGradGradGradGradGradGradGradGradGradGrad

                          Input orientation:                          
 ---------------------------------------------------------------------
 Center     Atomic      Atomic             Coordinates (Angstroms)
 Number     Number       Type             X           Y           Z
 ---------------------------------------------------------------------
      1         15           0        0.504263    0.638893   -0.095251
      2          8           0       -1.990351    1.002476   -0.098279
      3          8           0        1.230795   -0.412545   -1.004937
      4          9           0        1.596304    2.027899   -0.210031
      5          8           0       -0.781196    1.892946   -0.404775
      6          8           0       -1.165755   -0.247064    0.188617
      7          9           0        0.835047    0.563231    1.593839
 ---------------------------------------------------------------------
                    Distance matrix (angstroms):
                    1          2          3          4          5
     1  P    0.000000
     2  O    2.520972   0.000000
     3  O    1.568726   3.633193   0.000000
     4  F    1.770611   3.732033   2.592536   0.000000
     5  O    1.822323   1.532623   3.118268   2.389277   0.000000
     6  O    1.911665   1.524341   2.682426   3.600465   2.253806
     7  F    1.722837   3.322510   2.803996   2.445141   2.893932
                    6          7
     6  O    0.000000
     7  F    2.575740   0.000000
 Stoichiometry    F2O4P(1-)
 Framework group  C1[X(F2O4P)]
 Deg. of freedom    15
 Full point group                 C1      NOp   1
 Largest Abelian subgroup         C1      NOp   1
 Largest concise Abelian subgroup C1      NOp   1
                         Standard orientation:                         
 ---------------------------------------------------------------------
 Center     Atomic      Atomic             Coordinates (Angstroms)
 Number     Number       Type             X           Y           Z
 ---------------------------------------------------------------------
      1         15           0        0.375050   -0.153055   -0.120204
      2          8           0       -2.096088    0.341455   -0.055078
      3          8           0        1.034634   -1.156663   -1.129471
      4          9           0        1.539646    1.180632   -0.127843
      5          8           0       -0.843451    1.190088   -0.299319
      6          8           0       -1.337726   -0.970691    0.108565
      7          9           0        0.717610   -0.395931    1.550674
 ---------------------------------------------------------------------
 Rotational constants (GHZ):      3.1656239      1.9817002      1.8197017
 Standard basis: 6-311G (5D, 7F)
 There are    99 symmetry adapted cartesian basis functions of A   symmetry.
 There are    99 symmetry adapted basis functions of A   symmetry.
    99 basis functions,   196 primitive gaussians,    99 cartesian basis functions
    33 alpha electrons       33 beta electrons
       nuclear repulsion energy       429.6736236018 Hartrees.



 Warning!  P  atom    1 may be hypervalent but has no d functions.



 NAtoms=    7 NActive=    7 NUniq=    7 SFac= 1.00D+00 NAtFMM=   60 NAOKFM=F Big=F
 Integral buffers will be    131072 words long.
 Raffenetti 2 integral format.
 Two-electron integral symmetry is turned on.
 One-electron integrals computed using PRISM.
 NBasis=    99 RedAO= T EigKep=  1.83D-02  NBF=    99
 NBsUse=    99 1.00D-06 EigRej= -1.00D+00 NBFU=    99
 Initial guess from the checkpoint file:  "HF2PO4-A.chk"
 B after Tr=     0.000000    0.000000    0.000000
         Rot=    0.999560   -0.028959   -0.003284    0.005589 Ang=  -3.40 deg.
 ExpMin= 6.85D-02 ExpMax= 7.75D+04 ExpMxC= 2.65D+03 IAcc=2 IRadAn=         4 AccDes= 0.00D+00
 Harris functional with IExCor=  402 and IRadAn=       4 diagonalized for initial guess.
 HarFok:  IExCor=  402 AccDes= 0.00D+00 IRadAn=         4 IDoV= 1 UseB2=F ITyADJ=14
 ICtDFT=  3500011 ScaDFX=  1.000000  1.000000  1.000000  1.000000
 FoFCou: FMM=F IPFlag=           0 FMFlag=      100000 FMFlg1=           0
         NFxFlg=           0 DoJE=T BraDBF=F KetDBF=T FulRan=T
         wScrn=  0.000000 ICntrl=     500 IOpCl=  0 I1Cent=   200000004 NGrid=           0
         NMat0=    1 NMatS0=      1 NMatT0=    0 NMatD0=    1 NMtDS0=    0 NMtDT0=    0
 Petite list used in FoFCou.
 Keep R1 ints in memory in canonical form, NReq=13222358.
 Requested convergence on RMS density matrix=1.00D-08 within 128 cycles.
 Requested convergence on MAX density matrix=1.00D-06.
 Requested convergence on             energy=1.00D-06.
 No special actions if energy rises.
 Integral accuracy reduced to 1.0D-05 until final iterations.
 Initial convergence to 1.0D-05 achieved.  Increase integral accuracy.
 SCF Done:  E(RB3LYP) =  -841.871999682     A.U. after   14 cycles
            NFock= 14  Conv=0.41D-08     -V/T= 2.0019
 Calling FoFJK, ICntrl=      2127 FMM=F ISym2X=0 I1Cent= 0 IOpClX= 0 NMat=1 NMatS=1 NMatT=0.
 ***** Axes restored to original set *****
 -------------------------------------------------------------------
 Center     Atomic                   Forces (Hartrees/Bohr)
 Number     Number              X              Y              Z
 -------------------------------------------------------------------
      1       15           0.002209002    0.001818673    0.000863917
      2        8           0.006597079   -0.001844252    0.000065959
      3        8          -0.000300564    0.000378078   -0.001074351
      4        9          -0.001590076   -0.000443023   -0.000045953
      5        8          -0.002096513    0.000442867   -0.001770839
      6        8          -0.005965930    0.000367501    0.000305641
      7        9           0.001147003   -0.000719843    0.001655626
 -------------------------------------------------------------------
 Cartesian Forces:  Max     0.006597079 RMS     0.002268815

 GradGradGradGradGradGradGradGradGradGradGradGradGradGradGradGradGradGrad
 Berny optimization.
 Using GEDIIS/GDIIS optimizer.
 FormGI is forming the generalized inverse of G from B-inverse, IUseBI=4.
 Internal  Forces:  Max     0.003597569 RMS     0.001504563
 Search for a local minimum.
 Step number   4 out of a maximum of   40
 All quantities printed in internal units (Hartrees-Bohrs-Radians)
 Mixed Optimization -- RFO/linear search
 Update second derivatives using D2CorX and points    2    3    4
 DE= -1.29D-03 DEPred=-1.34D-03 R= 9.68D-01
 TightC=F SS=  1.41D+00  RLast= 1.17D-01 DXNew= 1.4270D+00 3.4997D-01
 Trust test= 9.68D-01 RLast= 1.17D-01 DXMaxT set to 8.49D-01
 ITU=  1  1  1  0
 Use linear search instead of GDIIS.
     Eigenvalues ---    0.01937   0.06940   0.11223   0.13908   0.16951
     Eigenvalues ---    0.18723   0.19467   0.21957   0.30681   0.35956
     Eigenvalues ---    0.37860   0.40526   0.46546   0.53266   0.54253
 RFO step:  Lambda=-2.72868686D-04 EMin= 1.93728283D-02
 Quartic linear search produced a step of -0.00730.
 Iteration  1 RMS(Cart)=  0.00832047 RMS(Int)=  0.00005852
 Iteration  2 RMS(Cart)=  0.00004455 RMS(Int)=  0.00002293
 Iteration  3 RMS(Cart)=  0.00000000 RMS(Int)=  0.00002293
 Variable       Old X    -DE/DX   Delta X   Delta X   Delta X     New X
                                 (Linear)    (Quad)   (Total)
    R1        2.96446   0.00023   0.00006  -0.00052  -0.00046   2.96400
    R2        3.34597  -0.00132  -0.00013   0.00118   0.00105   3.34702
    R3        3.44369   0.00000  -0.00014   0.00482   0.00467   3.44836
    R4        3.61252   0.00281  -0.00018   0.01407   0.01388   3.62640
    R5        3.25569   0.00188  -0.00013   0.00724   0.00710   3.26279
    R6        2.89624  -0.00236   0.00001  -0.00623  -0.00620   2.89004
    R7        2.88059  -0.00352   0.00008  -0.00988  -0.00979   2.87080
    A1        1.77477   0.00064   0.00028  -0.00086  -0.00062   1.77415
    A2        2.33151  -0.00157   0.00014  -0.01398  -0.01383   2.31768
    A3        1.75186  -0.00009   0.00007   0.00390   0.00401   1.75586
    A4        2.03775  -0.00008   0.00004   0.00104   0.00107   2.03882
    A5        1.45474  -0.00143  -0.00039  -0.00531  -0.00572   1.44902
    A6        1.55039   0.00018  -0.00017   0.00311   0.00296   1.55334
    A7        1.29524   0.00033   0.00015  -0.00111  -0.00096   1.29428
    A8        1.90941   0.00174  -0.00016   0.01350   0.01333   1.92274
    A9        1.57259   0.00081  -0.00005   0.00316   0.00313   1.57572
   A10        1.65803   0.00360   0.00009   0.01045   0.01056   1.66859
   A11        1.69383  -0.00164  -0.00012  -0.00354  -0.00366   1.69017
   A12        1.63557  -0.00230  -0.00012  -0.00578  -0.00591   1.62966
   A13        3.52663   0.00055   0.00035   0.00304   0.00338   3.53001
   A14        3.31710   0.00137  -0.00004   0.00928   0.00927   3.32637
    D1        1.58098   0.00090   0.00019   0.00798   0.00811   1.58910
    D2       -2.95999   0.00036   0.00021   0.00112   0.00141  -2.95858
    D3        0.02096   0.00025  -0.00002  -0.00057  -0.00060   0.02036
    D4       -1.45208  -0.00021  -0.00008   0.00065   0.00057  -1.45151
    D5       -2.33491   0.00136  -0.00011   0.01590   0.01579  -2.31911
    D6       -0.02096  -0.00026   0.00002   0.00054   0.00057  -0.02039
    D7        1.90176   0.00128  -0.00015   0.01380   0.01365   1.91540
    D8       -0.02539  -0.00037   0.00003   0.00049   0.00053  -0.02487
    D9        0.02407   0.00033  -0.00003  -0.00052  -0.00055   0.02352
         Item               Value     Threshold  Converged?
 Maximum Force            0.003598     0.000450     NO 
 RMS     Force            0.001505     0.000300     NO 
 Maximum Displacement     0.018498     0.001800     NO 
 RMS     Displacement     0.008323     0.001200     NO 
 Predicted change in Energy=-1.368225D-04
 GradGradGradGradGradGradGradGradGradGradGradGradGradGradGradGradGradGrad

                          Input orientation:                          
 ---------------------------------------------------------------------
 Center     Atomic      Atomic             Coordinates (Angstroms)
 Number     Number       Type             X           Y           Z
 ---------------------------------------------------------------------
      1         15           0        0.504742    0.637497   -0.090077
      2          8           0       -1.985217    1.002638   -0.104937
      3          8           0        1.228628   -0.407784   -1.008509
      4          9           0        1.590688    2.031553   -0.209894
      5          8           0       -0.780124    1.892203   -0.413660
      6          8           0       -1.174445   -0.246451    0.195521
      7          9           0        0.844835    0.556182    1.600738
 ---------------------------------------------------------------------
                    Distance matrix (angstroms):
                    1          2          3          4          5
     1  P    0.000000
     2  O    2.516634   0.000000
     3  O    1.568483   3.624160   0.000000
     4  F    1.771166   3.722470   2.592149   0.000000
     5  O    1.824794   1.529341   3.111088   2.383630   0.000000
     6  O    1.919010   1.519161   2.692670   3.605499   2.258414
     7  F    1.726595   3.334343   2.807970   2.451816   2.912601
                    6          7
     6  O    0.000000
     7  F    2.587730   0.000000
 Stoichiometry    F2O4P(1-)
 Framework group  C1[X(F2O4P)]
 Deg. of freedom    15
 Full point group                 C1      NOp   1
 Largest Abelian subgroup         C1      NOp   1
 Largest concise Abelian subgroup C1      NOp   1
                         Standard orientation:                         
 ---------------------------------------------------------------------
 Center     Atomic      Atomic             Coordinates (Angstroms)
 Number     Number       Type             X           Y           Z
 ---------------------------------------------------------------------
      1         15           0        0.374702   -0.151625   -0.121910
      2          8           0       -2.091166    0.345010   -0.042565
      3          8           0        1.026139   -1.120109   -1.169673
      4          9           0        1.534327    1.187007   -0.102809
      5          8           0       -0.843280    1.198911   -0.271736
      6          8           0       -1.346525   -0.971987    0.094843
      7          9           0        0.734353   -0.447031    1.540774
 ---------------------------------------------------------------------
 Rotational constants (GHZ):      3.1525670      1.9787122      1.8191254
 Standard basis: 6-311G (5D, 7F)
 There are    99 symmetry adapted cartesian basis functions of A   symmetry.
 There are    99 symmetry adapted basis functions of A   symmetry.
    99 basis functions,   196 primitive gaussians,    99 cartesian basis functions
    33 alpha electrons       33 beta electrons
       nuclear repulsion energy       429.3297043089 Hartrees.
 NAtoms=    7 NActive=    7 NUniq=    7 SFac= 1.00D+00 NAtFMM=   60 NAOKFM=F Big=F
 Integral buffers will be    131072 words long.
 Raffenetti 2 integral format.
 Two-electron integral symmetry is turned on.
 One-electron integrals computed using PRISM.
 NBasis=    99 RedAO= T EigKep=  1.84D-02  NBF=    99
 NBsUse=    99 1.00D-06 EigRej= -1.00D+00 NBFU=    99
 Initial guess from the checkpoint file:  "HF2PO4-A.chk"
 B after Tr=     0.000000    0.000000    0.000000
         Rot=    0.999901   -0.013830   -0.002463    0.000304 Ang=  -1.61 deg.
 Keep R1 ints in memory in canonical form, NReq=13222358.
 Requested convergence on RMS density matrix=1.00D-08 within 128 cycles.
 Requested convergence on MAX density matrix=1.00D-06.
 Requested convergence on             energy=1.00D-06.
 No special actions if energy rises.
 SCF Done:  E(RB3LYP) =  -841.872197650     A.U. after   12 cycles
            NFock= 12  Conv=0.36D-08     -V/T= 2.0019
 Calling FoFJK, ICntrl=      2127 FMM=F ISym2X=0 I1Cent= 0 IOpClX= 0 NMat=1 NMatS=1 NMatT=0.
 ***** Axes restored to original set *****
 -------------------------------------------------------------------
 Center     Atomic                   Forces (Hartrees/Bohr)
 Number     Number              X              Y              Z
 -------------------------------------------------------------------
      1       15           0.002109296    0.002496883    0.000168266
      2        8           0.002572344   -0.000824591   -0.000024300
      3        8          -0.000325481   -0.000044349   -0.000537998
      4        9          -0.001163179   -0.000854756    0.000704987
      5        8          -0.000895984   -0.001127648   -0.000934510
      6        8          -0.002834380    0.000879428    0.000525590
      7        9           0.000537384   -0.000524968    0.000097966
 -------------------------------------------------------------------
 Cartesian Forces:  Max     0.002834380 RMS     0.001264766

 GradGradGradGradGradGradGradGradGradGradGradGradGradGradGradGradGradGrad
 Berny optimization.
 Using GEDIIS/GDIIS optimizer.
 FormGI is forming the generalized inverse of G from B-inverse, IUseBI=4.
 Internal  Forces:  Max     0.001847867 RMS     0.000761560
 Search for a local minimum.
 Step number   5 out of a maximum of   40
 All quantities printed in internal units (Hartrees-Bohrs-Radians)
 Mixed Optimization -- En-DIIS/RFO-DIIS
 Update second derivatives using D2CorX and points    2    3    4    5
 DE= -1.98D-04 DEPred=-1.37D-04 R= 1.45D+00
 TightC=F SS=  1.41D+00  RLast= 4.00D-02 DXNew= 1.4270D+00 1.2005D-01
 Trust test= 1.45D+00 RLast= 4.00D-02 DXMaxT set to 8.49D-01
 ITU=  1  1  1  1  0
 Use linear search instead of GDIIS.
     Eigenvalues ---    0.01879   0.04693   0.10636   0.13410   0.17010
     Eigenvalues ---    0.18258   0.19179   0.23103   0.31136   0.35357
     Eigenvalues ---    0.36179   0.39701   0.46394   0.53349   0.54229
 RFO step:  Lambda=-1.14594522D-04 EMin= 1.87891963D-02
 Quartic linear search produced a step of  0.77403.
 Iteration  1 RMS(Cart)=  0.01412352 RMS(Int)=  0.00016183
 Iteration  2 RMS(Cart)=  0.00011808 RMS(Int)=  0.00006288
 Iteration  3 RMS(Cart)=  0.00000001 RMS(Int)=  0.00006288
 Variable       Old X    -DE/DX   Delta X   Delta X   Delta X     New X
                                 (Linear)    (Quad)   (Total)
    R1        2.96400   0.00019  -0.00036  -0.00025  -0.00061   2.96340
    R2        3.34702  -0.00143   0.00081  -0.00290  -0.00209   3.34493
    R3        3.44836  -0.00045   0.00362  -0.00001   0.00358   3.45194
    R4        3.62640   0.00151   0.01074   0.00720   0.01791   3.64431
    R5        3.26279   0.00023   0.00550   0.00108   0.00657   3.26936
    R6        2.89004  -0.00118  -0.00480  -0.00391  -0.00866   2.88137
    R7        2.87080  -0.00185  -0.00758  -0.00624  -0.01378   2.85702
    A1        1.77415   0.00069  -0.00048   0.00659   0.00609   1.78024
    A2        2.31768  -0.00099  -0.01070  -0.01041  -0.02106   2.29662
    A3        1.75586   0.00003   0.00310   0.00417   0.00732   1.76318
    A4        2.03882  -0.00017   0.00083  -0.00219  -0.00138   2.03745
    A5        1.44902  -0.00006  -0.00442   0.00472   0.00044   1.44946
    A6        1.55334  -0.00040   0.00229  -0.00555  -0.00324   1.55010
    A7        1.29428  -0.00038  -0.00075  -0.00406  -0.00479   1.28949
    A8        1.92274   0.00114   0.01032   0.01203   0.02229   1.94503
    A9        1.57572   0.00027   0.00242  -0.00592  -0.00337   1.57234
   A10        1.66859   0.00096   0.00817   0.00031   0.00854   1.67713
   A11        1.69017  -0.00002  -0.00283   0.00308   0.00020   1.69037
   A12        1.62966  -0.00056  -0.00457   0.00091  -0.00373   1.62593
   A13        3.53001   0.00073   0.00262   0.01076   0.01341   3.54342
   A14        3.32637   0.00015   0.00718  -0.00857  -0.00123   3.32514
    D1        1.58910   0.00005   0.00628   0.00011   0.00634   1.59543
    D2       -2.95858   0.00091   0.00109   0.01311   0.01431  -2.94427
    D3        0.02036   0.00008  -0.00046  -0.00492  -0.00538   0.01498
    D4       -1.45151   0.00029   0.00044   0.00715   0.00768  -1.44382
    D5       -2.31911   0.00096   0.01223   0.01661   0.02885  -2.29026
    D6       -0.02039  -0.00008   0.00044   0.00491   0.00537  -0.01502
    D7        1.91540   0.00106   0.01056   0.01968   0.03025   1.94565
    D8       -0.02487  -0.00012   0.00041   0.00593   0.00640  -0.01846
    D9        0.02352   0.00010  -0.00043  -0.00566  -0.00613   0.01739
         Item               Value     Threshold  Converged?
 Maximum Force            0.001848     0.000450     NO 
 RMS     Force            0.000762     0.000300     NO 
 Maximum Displacement     0.035880     0.001800     NO 
 RMS     Displacement     0.014114     0.001200     NO 
 Predicted change in Energy=-1.093815D-04
 GradGradGradGradGradGradGradGradGradGradGradGradGradGradGradGradGradGrad

                          Input orientation:                          
 ---------------------------------------------------------------------
 Center     Atomic      Atomic             Coordinates (Angstroms)
 Number     Number       Type             X           Y           Z
 ---------------------------------------------------------------------
      1         15           0        0.506650    0.638438   -0.087045
      2          8           0       -1.982103    1.000969   -0.115988
      3          8           0        1.223509   -0.402028   -1.015848
      4          9           0        1.586711    2.036381   -0.198090
      5          8           0       -0.781788    1.886417   -0.432392
      6          8           0       -1.183666   -0.239606    0.214508
      7          9           0        0.859795    0.545266    1.604038
 ---------------------------------------------------------------------
                    Distance matrix (angstroms):
                    1          2          3          4          5
     1  P    0.000000
     2  O    2.515186   0.000000
     3  O    1.568161   3.613045   0.000000
     4  F    1.770059   3.716888   2.597399   0.000000
     5  O    1.826688   1.524758   3.098163   2.384780   0.000000
     6  O    1.928488   1.511871   2.708256   3.609064   2.258309
     7  F    1.730073   3.352990   2.809529   2.449387   2.939478
                    6          7
     6  O    0.000000
     7  F    2.592788   0.000000
 Stoichiometry    F2O4P(1-)
 Framework group  C1[X(F2O4P)]
 Deg. of freedom    15
 Full point group                 C1      NOp   1
 Largest Abelian subgroup         C1      NOp   1
 Largest concise Abelian subgroup C1      NOp   1
                         Standard orientation:                         
 ---------------------------------------------------------------------
 Center     Atomic      Atomic             Coordinates (Angstroms)
 Number     Number       Type             X           Y           Z
 ---------------------------------------------------------------------
      1         15           0        0.375309   -0.146421   -0.128039
      2          8           0       -2.089090    0.345589   -0.024010
      3          8           0        1.010964   -1.068590   -1.225617
      4          9           0        1.529544    1.193800   -0.059792
      5          8           0       -0.848389    1.205176   -0.240015
      6          8           0       -1.354410   -0.970870    0.089717
      7          9           0        0.761318   -0.515368    1.517570
 ---------------------------------------------------------------------
 Rotational constants (GHZ):      3.1460226      1.9728737      1.8173576
 Standard basis: 6-311G (5D, 7F)
 There are    99 symmetry adapted cartesian basis functions of A   symmetry.
 There are    99 symmetry adapted basis functions of A   symmetry.
    99 basis functions,   196 primitive gaussians,    99 cartesian basis functions
    33 alpha electrons       33 beta electrons
       nuclear repulsion energy       429.0378524137 Hartrees.
 NAtoms=    7 NActive=    7 NUniq=    7 SFac= 1.00D+00 NAtFMM=   60 NAOKFM=F Big=F
 Integral buffers will be    131072 words long.
 Raffenetti 2 integral format.
 Two-electron integral symmetry is turned on.
 One-electron integrals computed using PRISM.
 NBasis=    99 RedAO= T EigKep=  1.84D-02  NBF=    99
 NBsUse=    99 1.00D-06 EigRej= -1.00D+00 NBFU=    99
 Initial guess from the checkpoint file:  "HF2PO4-A.chk"
 B after Tr=     0.000000    0.000000    0.000000
         Rot=    0.999817   -0.018673   -0.004176   -0.000137 Ang=  -2.19 deg.
 ExpMin= 6.85D-02 ExpMax= 7.75D+04 ExpMxC= 2.65D+03 IAcc=2 IRadAn=         4 AccDes= 0.00D+00
 Harris functional with IExCor=  402 and IRadAn=       4 diagonalized for initial guess.
 HarFok:  IExCor=  402 AccDes= 0.00D+00 IRadAn=         4 IDoV= 1 UseB2=F ITyADJ=14
 ICtDFT=  3500011 ScaDFX=  1.000000  1.000000  1.000000  1.000000
 FoFCou: FMM=F IPFlag=           0 FMFlag=      100000 FMFlg1=           0
         NFxFlg=           0 DoJE=T BraDBF=F KetDBF=T FulRan=T
         wScrn=  0.000000 ICntrl=     500 IOpCl=  0 I1Cent=   200000004 NGrid=           0
         NMat0=    1 NMatS0=      1 NMatT0=    0 NMatD0=    1 NMtDS0=    0 NMtDT0=    0
 Petite list used in FoFCou.
 Keep R1 ints in memory in canonical form, NReq=13222358.
 Requested convergence on RMS density matrix=1.00D-08 within 128 cycles.
 Requested convergence on MAX density matrix=1.00D-06.
 Requested convergence on             energy=1.00D-06.
 No special actions if energy rises.
 Integral accuracy reduced to 1.0D-05 until final iterations.
 Initial convergence to 1.0D-05 achieved.  Increase integral accuracy.
 SCF Done:  E(RB3LYP) =  -841.872342490     A.U. after   13 cycles
            NFock= 13  Conv=0.79D-08     -V/T= 2.0019
 Calling FoFJK, ICntrl=      2127 FMM=F ISym2X=0 I1Cent= 0 IOpClX= 0 NMat=1 NMatS=1 NMatT=0.
 ***** Axes restored to original set *****
 -------------------------------------------------------------------
 Center     Atomic                   Forces (Hartrees/Bohr)
 Number     Number              X              Y              Z
 -------------------------------------------------------------------
      1       15           0.001029339    0.002252787    0.000359165
      2        8          -0.001113949    0.000491769   -0.000397039
      3        8          -0.000254913   -0.000070159   -0.000183177
      4        9          -0.000916794   -0.001012362    0.000665263
      5        8           0.000818868   -0.001017875   -0.000429432
      6        8           0.000472007   -0.000181304    0.000956480
      7        9          -0.000034559   -0.000462855   -0.000971260
 -------------------------------------------------------------------
 Cartesian Forces:  Max     0.002252787 RMS     0.000831971

 GradGradGradGradGradGradGradGradGradGradGradGradGradGradGradGradGradGrad
 Berny optimization.
 Using GEDIIS/GDIIS optimizer.
 FormGI is forming the generalized inverse of G from B-inverse, IUseBI=4.
 Internal  Forces:  Max     0.001397858 RMS     0.000523186
 Search for a local minimum.
 Step number   6 out of a maximum of   40
 All quantities printed in internal units (Hartrees-Bohrs-Radians)
 Mixed Optimization -- En-DIIS/RFO-DIIS
 Swapping is turned off.
 Update second derivatives using D2CorX and points    2    3    4    5    6
 DE= -1.45D-04 DEPred=-1.09D-04 R= 1.32D+00
 TightC=F SS=  1.41D+00  RLast= 6.47D-02 DXNew= 1.4270D+00 1.9396D-01
 Trust test= 1.32D+00 RLast= 6.47D-02 DXMaxT set to 8.49D-01
 ITU=  1  1  1  1  1  0
     Eigenvalues ---    0.01545   0.03131   0.11681   0.13400   0.17139
     Eigenvalues ---    0.18438   0.18905   0.24096   0.31249   0.35702
     Eigenvalues ---    0.37787   0.42574   0.47974   0.53841   0.55364
 En-DIIS/RFO-DIIS IScMMF=        0 using points:     6    5
 RFO step:  Lambda=-2.32441415D-05.
 DidBck=F Rises=F RFO-DIIS coefs:    1.57138   -0.57138
 Iteration  1 RMS(Cart)=  0.01459349 RMS(Int)=  0.00021236
 Iteration  2 RMS(Cart)=  0.00014801 RMS(Int)=  0.00009014
 Iteration  3 RMS(Cart)=  0.00000001 RMS(Int)=  0.00009014
 Variable       Old X    -DE/DX   Delta X   Delta X   Delta X     New X
                                 (Linear)    (Quad)   (Total)
    R1        2.96340   0.00004  -0.00035  -0.00012  -0.00047   2.96293
    R2        3.34493  -0.00140  -0.00120  -0.00383  -0.00502   3.33991
    R3        3.45194  -0.00072   0.00205  -0.00219  -0.00018   3.45176
    R4        3.64431   0.00013   0.01023   0.00104   0.01123   3.65554
    R5        3.26936  -0.00093   0.00376  -0.00152   0.00223   3.27160
    R6        2.88137   0.00032  -0.00495   0.00014  -0.00476   2.87662
    R7        2.85702   0.00067  -0.00787   0.00114  -0.00668   2.85034
    A1        1.78024   0.00050   0.00348   0.00308   0.00660   1.78684
    A2        2.29662  -0.00053  -0.01203  -0.00738  -0.01935   2.27727
    A3        1.76318  -0.00004   0.00418   0.00299   0.00723   1.77042
    A4        2.03745  -0.00018  -0.00079  -0.00197  -0.00277   2.03468
    A5        1.44946   0.00018   0.00025   0.00166   0.00218   1.45164
    A6        1.55010  -0.00024  -0.00185  -0.00148  -0.00332   1.54678
    A7        1.28949  -0.00007  -0.00273  -0.00009  -0.00279   1.28670
    A8        1.94503   0.00066   0.01274   0.00910   0.02177   1.96680
    A9        1.57234  -0.00026  -0.00193  -0.00536  -0.00711   1.56523
   A10        1.67713  -0.00066   0.00488  -0.00094   0.00396   1.68109
   A11        1.69037   0.00058   0.00011   0.00143   0.00144   1.69180
   A12        1.62593   0.00015  -0.00213  -0.00011  -0.00236   1.62357
   A13        3.54342   0.00045   0.00766   0.00607   0.01383   3.55725
   A14        3.32514  -0.00042  -0.00070  -0.00565  -0.00613   3.31901
    D1        1.59543  -0.00006   0.00362  -0.00169   0.00191   1.59734
    D2       -2.94427   0.00074   0.00818   0.00366   0.01188  -2.93239
    D3        0.01498  -0.00009  -0.00308  -0.00776  -0.01083   0.00415
    D4       -1.44382   0.00045   0.00439   0.00136   0.00589  -1.43793
    D5       -2.29026   0.00063   0.01649   0.01611   0.03260  -2.25766
    D6       -0.01502   0.00009   0.00307   0.00779   0.01086  -0.00416
    D7        1.94565   0.00087   0.01728   0.01901   0.03630   1.98195
    D8       -0.01846   0.00011   0.00366   0.00957   0.01332  -0.00514
    D9        0.01739  -0.00011  -0.00350  -0.00903  -0.01257   0.00482
         Item               Value     Threshold  Converged?
 Maximum Force            0.001398     0.000450     NO 
 RMS     Force            0.000523     0.000300     NO 
 Maximum Displacement     0.043331     0.001800     NO 
 RMS     Displacement     0.014579     0.001200     NO 
 Predicted change in Energy=-5.372790D-05
 GradGradGradGradGradGradGradGradGradGradGradGradGradGradGradGradGradGrad

                          Input orientation:                          
 ---------------------------------------------------------------------
 Center     Atomic      Atomic             Coordinates (Angstroms)
 Number     Number       Type             X           Y           Z
 ---------------------------------------------------------------------
      1         15           0        0.507928    0.640739   -0.084861
      2          8           0       -1.981063    0.998260   -0.129930
      3          8           0        1.217276   -0.396148   -1.022969
      4          9           0        1.583193    2.039841   -0.185002
      5          8           0       -0.782671    1.880806   -0.449591
      6          8           0       -1.188439   -0.231319    0.237438
      7          9           0        0.872884    0.533657    1.604098
 ---------------------------------------------------------------------
                    Distance matrix (angstroms):
                    1          2          3          4          5
     1  P    0.000000
     2  O    2.514941   0.000000
     3  O    1.567914   3.601564   0.000000
     4  F    1.767402   3.713738   2.601946   0.000000
     5  O    1.826592   1.522240   3.084327   2.385920   0.000000
     6  O    1.934431   1.508335   2.720893   3.608125   2.257815
     7  F    1.731254   3.371605   2.807956   2.444178   2.961977
                    6          7
     6  O    0.000000
     7  F    2.588822   0.000000
 Stoichiometry    F2O4P(1-)
 Framework group  C1[X(F2O4P)]
 Deg. of freedom    15
 Full point group                 C1      NOp   1
 Largest Abelian subgroup         C1      NOp   1
 Largest concise Abelian subgroup C1      NOp   1
                         Standard orientation:                         
 ---------------------------------------------------------------------
 Center     Atomic      Atomic             Coordinates (Angstroms)
 Number     Number       Type             X           Y           Z
 ---------------------------------------------------------------------
      1         15           0        0.375594   -0.139094   -0.134508
      2          8           0       -2.089411    0.343459   -0.008731
      3          8           0        0.995848   -1.011454   -1.280207
      4          9           0        1.524609    1.198266   -0.012268
      5          8           0       -0.853512    1.210283   -0.204650
      6          8           0       -1.356571   -0.971440    0.086462
      7          9           0        0.785976   -0.584974    1.487226
 ---------------------------------------------------------------------
 Rotational constants (GHZ):      3.1448658      1.9699262      1.8166884
 Standard basis: 6-311G (5D, 7F)
 There are    99 symmetry adapted cartesian basis functions of A   symmetry.
 There are    99 symmetry adapted basis functions of A   symmetry.
    99 basis functions,   196 primitive gaussians,    99 cartesian basis functions
    33 alpha electrons       33 beta electrons
       nuclear repulsion energy       428.9775975365 Hartrees.
 NAtoms=    7 NActive=    7 NUniq=    7 SFac= 1.00D+00 NAtFMM=   60 NAOKFM=F Big=F
 Integral buffers will be    131072 words long.
 Raffenetti 2 integral format.
 Two-electron integral symmetry is turned on.
 One-electron integrals computed using PRISM.
 NBasis=    99 RedAO= T EigKep=  1.85D-02  NBF=    99
 NBsUse=    99 1.00D-06 EigRej= -1.00D+00 NBFU=    99
 Initial guess from the checkpoint file:  "HF2PO4-A.chk"
 B after Tr=     0.000000    0.000000    0.000000
         Rot=    0.999799   -0.019646   -0.003932   -0.000612 Ang=  -2.30 deg.
 ExpMin= 6.85D-02 ExpMax= 7.75D+04 ExpMxC= 2.65D+03 IAcc=2 IRadAn=         4 AccDes= 0.00D+00
 Harris functional with IExCor=  402 and IRadAn=       4 diagonalized for initial guess.
 HarFok:  IExCor=  402 AccDes= 0.00D+00 IRadAn=         4 IDoV= 1 UseB2=F ITyADJ=14
 ICtDFT=  3500011 ScaDFX=  1.000000  1.000000  1.000000  1.000000
 FoFCou: FMM=F IPFlag=           0 FMFlag=      100000 FMFlg1=           0
         NFxFlg=           0 DoJE=T BraDBF=F KetDBF=T FulRan=T
         wScrn=  0.000000 ICntrl=     500 IOpCl=  0 I1Cent=   200000004 NGrid=           0
         NMat0=    1 NMatS0=      1 NMatT0=    0 NMatD0=    1 NMtDS0=    0 NMtDT0=    0
 Petite list used in FoFCou.
 Keep R1 ints in memory in canonical form, NReq=13222358.
 Requested convergence on RMS density matrix=1.00D-08 within 128 cycles.
 Requested convergence on MAX density matrix=1.00D-06.
 Requested convergence on             energy=1.00D-06.
 No special actions if energy rises.
 Integral accuracy reduced to 1.0D-05 until final iterations.
 Initial convergence to 1.0D-05 achieved.  Increase integral accuracy.
 SCF Done:  E(RB3LYP) =  -841.872424613     A.U. after   13 cycles
            NFock= 13  Conv=0.37D-08     -V/T= 2.0019
 Calling FoFJK, ICntrl=      2127 FMM=F ISym2X=0 I1Cent= 0 IOpClX= 0 NMat=1 NMatS=1 NMatT=0.
 ***** Axes restored to original set *****
 -------------------------------------------------------------------
 Center     Atomic                   Forces (Hartrees/Bohr)
 Number     Number              X              Y              Z
 -------------------------------------------------------------------
      1       15           0.000054212    0.001141541    0.000355133
      2        8          -0.002841599    0.001080231   -0.000735511
      3        8          -0.000152057    0.000003569   -0.000046363
      4        9          -0.000506539   -0.000634158    0.000475544
      5        8           0.001564196   -0.000475320   -0.000117606
      6        8           0.002104191   -0.000786905    0.001187497
      7        9          -0.000222405   -0.000328957   -0.001118694
 -------------------------------------------------------------------
 Cartesian Forces:  Max     0.002841599 RMS     0.001039173

 GradGradGradGradGradGradGradGradGradGradGradGradGradGradGradGradGradGrad
 Berny optimization.
 Using GEDIIS/GDIIS optimizer.
 FormGI is forming the generalized inverse of G from B-inverse, IUseBI=4.
 Internal  Forces:  Max     0.001980236 RMS     0.000637768
 Search for a local minimum.
 Step number   7 out of a maximum of   40
 All quantities printed in internal units (Hartrees-Bohrs-Radians)
 Mixed Optimization -- En-DIIS/RFO-DIIS
 Swapping is turned off.
 Update second derivatives using D2CorX and points    3    4    5    6    7
 DE= -8.21D-05 DEPred=-5.37D-05 R= 1.53D+00
 TightC=F SS=  1.41D+00  RLast= 6.81D-02 DXNew= 1.4270D+00 2.0419D-01
 Trust test= 1.53D+00 RLast= 6.81D-02 DXMaxT set to 8.49D-01
 ITU=  1  1  1  1  1  1  0
     Eigenvalues ---    0.00757   0.03086   0.11583   0.13605   0.17060
     Eigenvalues ---    0.18371   0.19083   0.23829   0.32765   0.35687
     Eigenvalues ---    0.38369   0.45003   0.50648   0.53938   0.60212
 En-DIIS/RFO-DIIS IScMMF=        0 using points:     7    6    5
 RFO step:  Lambda=-2.51462432D-05.
 DidBck=F Rises=F RFO-DIIS coefs:    3.66075   -3.74529    1.08454
 Iteration  1 RMS(Cart)=  0.03178797 RMS(Int)=  0.00118586
 Iteration  2 RMS(Cart)=  0.00086095 RMS(Int)=  0.00030318
 Iteration  3 RMS(Cart)=  0.00000042 RMS(Int)=  0.00030318
 Variable       Old X    -DE/DX   Delta X   Delta X   Delta X     New X
                                 (Linear)    (Quad)   (Total)
    R1        2.96293  -0.00005  -0.00058  -0.00048  -0.00107   2.96186
    R2        3.33991  -0.00083  -0.01109   0.00016  -0.01093   3.32897
    R3        3.45176  -0.00059  -0.00437   0.00053  -0.00394   3.44781
    R4        3.65554  -0.00059   0.01046   0.00180   0.01215   3.66770
    R5        3.27160  -0.00112  -0.00119   0.00107  -0.00012   3.27148
    R6        2.87662   0.00109  -0.00326   0.00161  -0.00153   2.87508
    R7        2.85034   0.00198  -0.00284   0.00326   0.00056   2.85090
    A1        1.78684   0.00031   0.01094   0.00178   0.01278   1.79962
    A2        2.27727  -0.00026  -0.02865  -0.00726  -0.03590   2.24136
    A3        1.77042  -0.00001   0.01131   0.00552   0.01727   1.78768
    A4        2.03468  -0.00011  -0.00587  -0.00030  -0.00615   2.02853
    A5        1.45164   0.00009   0.00532  -0.00181   0.00428   1.45592
    A6        1.54678  -0.00013  -0.00530  -0.00174  -0.00703   1.53975
    A7        1.28670   0.00019  -0.00222   0.00078  -0.00154   1.28517
    A8        1.96680   0.00034   0.03374   0.00783   0.04146   2.00827
    A9        1.56523  -0.00043  -0.01526  -0.00383  -0.01874   1.54649
[...]
   108. RY*(   9) O   6                  0.00001     3.22981   
   109. RY*(  10) O   6                  0.00002     3.22759   
   110. RY*(  11) O   6                  0.00000    49.56496   
   111. RY*(  12) O   6                  0.00000     4.50224   
   112. RY*(  13) O   6                  0.00000     4.79071   
   113. RY*(   1) F   7                  0.00072     1.86520   
   114. RY*(   2) F   7                  0.00017     1.32377   
   115. RY*(   3) F   7                  0.00013     1.73528   
   116. RY*(   4) F   7                  0.00006     2.90760   
   117. RY*(   5) F   7                  0.00002     3.77296   
   118. RY*(   6) F   7                  0.00001     6.06091   
   119. RY*(   7) F   7                  0.00001     6.07254   
   120. RY*(   8) F   7                  0.00002     3.99725   
   121. RY*(   9) F   7                  0.00001     3.62288   
   122. RY*(  10) F   7                  0.00000     3.72555   
   123. RY*(  11) F   7                  0.00001     3.93762   
   124. RY*(  12) F   7                  0.00000    66.48823   
   125. RY*(  13) F   7                  0.00000     5.91590   
   126. BD*(   1) P   1 - O   3          0.09717     0.42736   
   127. BD*(   2) P   1 - O   3          0.14498     0.49053  131(g),130(g),129(g),132(g)
                                                    35(g),62(g),39(g),38(g)
                                                    87(v),100(v)
   128. BD*(   3) P   1 - O   3          0.14396     0.47624  131(g),130(g),132(g),129(g)
                                                    37(g),63(g),87(v),100(v)
                                                    66(g)
   129. BD*(   1) P   1 - F   4          0.13501     0.55160  132(g),130(g),127(g),128(g)
                                                    131(g),37(g),126(g),39(g)
                                                    34(g),38(g),35(g),40(g)
                                                    47(g),43(g)
   130. BD*(   1) P   1 - O   5          0.13987     0.52879  131(g),129(g),127(g),128(g)
                                                    132(g),126(g),38(g),37(g)
                                                    39(g),43(g),35(g)
   131. BD*(   1) P   1 - O   6          0.13988     0.52869  130(g),132(g),127(g),128(g)
                                                    129(g),126(g),38(g),37(g)
                                                    39(g),43(g),35(g)
   132. BD*(   1) P   1 - F   7          0.13503     0.55158  129(g),131(g),127(g),128(g)
                                                    130(g),37(g),126(g),39(g)
                                                    34(g),38(g),35(g),40(g)
                                                    47(g),43(g)
   133. BD*(   1) O   2 - O   5          0.03638     0.16233   
   134. BD*(   1) O   2 - O   6          0.03643     0.16221   
       -------------------------------
              Total Lewis   64.91292  ( 98.3529%)
        Valence non-Lewis    1.00873  (  1.5284%)
        Rydberg non-Lewis    0.07835  (  0.1187%)
       -------------------------------
            Total unit  1   66.00000  (100.0000%)
           Charge unit  1   -1.00000
 1\1\GINC-BLADI16\SP\RB3LYP\6-311G(d,p)\F2O4P1(1-)\SARARIOP\21-Jun-2017
 \0\\# B3LYP/6-311G** geom=check guess=read pop=nboread\\Title Card Req
 uired\\-1,1\P,0,0.495777931,0.6501969966,-0.0513688819\O,0,-1.95921611
 23,0.8821775171,-0.3765700096\O,0,1.1222517143,-0.3230780329,-1.106360
 4832\F,0,1.4586317605,2.1057163846,0.0585134254\O,0,-0.8144500234,1.81
 0767957,-0.7433756648\O,0,-1.1608369546,0.0871599968,0.6424049692\F,0,
 1.0869489345,0.2528966408,1.545939645\\Version=AM64L-G09RevD.01\State=
 1-A\HF=-842.0545618\RMSD=5.590e-09\Dipole=-0.2626148,0.3176643,0.32884
 75\Quadrupole=-1.5618431,0.7451479,0.8166952,0.8447309,0.3449958,-0.40
 93129\PG=C01 [X(F2O4P1)]\\@


 THOSE WHO ARE UNABLE TO LEARN FROM PAST MEETINGS
 ARE CONDEMNED TO REPEAT THEM.
 Job cpu time:       0 days  0 hours  6 minutes 22.1 seconds.
 File lengths (MBytes):  RWF=      9 Int=      0 D2E=      0 Chk=      4 Scr=      1
 Normal termination of Gaussian 09 at Wed Jun 21 17:44:04 2017.
 Initial command:
 /usr/local/gaussian/gaussian09.d1/g09/l1.exe "/scratch/sarariop/HF2PO4-A.com/Gau-5938.inp" -scrdir="/scratch/sarariop/HF2PO4-A.com/"
 Default is to use a total of  10 processors:
                               10 via shared-memory
                                1 via Linda
 Entering Link 1 = /usr/local/gaussian/gaussian09.d1/g09/l1.exe PID=      8691.
  
 Copyright (c) 1988,1990,1992,1993,1995,1998,2003,2009,2013,
            Gaussian, Inc.  All Rights Reserved.
  
 This is part of the Gaussian(R) 09 program.  It is based on
 the Gaussian(R) 03 system (copyright 2003, Gaussian, Inc.),
 the Gaussian(R) 98 system (copyright 1998, Gaussian, Inc.),
 the Gaussian(R) 94 system (copyright 1995, Gaussian, Inc.),
 the Gaussian 92(TM) system (copyright 1992, Gaussian, Inc.),
 the Gaussian 90(TM) system (copyright 1990, Gaussian, Inc.),
 the Gaussian 88(TM) system (copyright 1988, Gaussian, Inc.),
 the Gaussian 86(TM) system (copyright 1986, Carnegie Mellon
 University), and the Gaussian 82(TM) system (copyright 1983,
 Carnegie Mellon University). Gaussian is a federally registered
 trademark of Gaussian, Inc.
  
 This software contains proprietary and confidential information,
 including trade secrets, belonging to Gaussian, Inc.
  
 This software is provided under written license and may be
 used, copied, transmitted, or stored only in accord with that
 written license.
  
 The following legend is applicable only to US Government
 contracts under FAR:
  
                    RESTRICTED RIGHTS LEGEND
  
 Use, reproduction and disclosure by the US Government is
 subject to restrictions as set forth in subparagraphs (a)
 and (c) of the Commercial Computer Software - Restricted
 Rights clause in FAR 52.227-19.
  
 Gaussian, Inc.
 340 Quinnipiac St., Bldg. 40, Wallingford CT 06492
  
  
 ---------------------------------------------------------------
 Warning -- This program may not be used in any manner that
 competes with the business of Gaussian, Inc. or will provide
 assistance to any competitor of Gaussian, Inc.  The licensee
 of this program is prohibited from giving any competitor of
 Gaussian, Inc. access to this program.  By using this program,
 the user acknowledges that Gaussian, Inc. is engaged in the
 business of creating and licensing software in the field of
 computational chemistry and represents and warrants to the
 licensee that it is not a competitor of Gaussian, Inc. and that
 it will not use this program in any manner prohibited above.
 ---------------------------------------------------------------
  

 Cite this work as:
 Gaussian 09, Revision D.01,
 M. J. Frisch, G. W. Trucks, H. B. Schlegel, G. E. Scuseria, 
 M. A. Robb, J. R. Cheeseman, G. Scalmani, V. Barone, B. Mennucci, 
 G. A. Petersson, H. Nakatsuji, M. Caricato, X. Li, H. P. Hratchian, 
 A. F. Izmaylov, J. Bloino, G. Zheng, J. L. Sonnenberg, M. Hada, 
 M. Ehara, K. Toyota, R. Fukuda, J. Hasegawa, M. Ishida, T. Nakajima, 
 Y. Honda, O. Kitao, H. Nakai, T. Vreven, J. A. Montgomery, Jr., 
 J. E. Peralta, F. Ogliaro, M. Bearpark, J. J. Heyd, E. Brothers, 
 K. N. Kudin, V. N. Staroverov, T. Keith, R. Kobayashi, J. Normand, 
 K. Raghavachari, A. Rendell, J. C. Burant, S. S. Iyengar, J. Tomasi, 
 M. Cossi, N. Rega, J. M. Millam, M. Klene, J. E. Knox, J. B. Cross, 
 V. Bakken, C. Adamo, J. Jaramillo, R. Gomperts, R. E. Stratmann, 
 O. Yazyev, A. J. Austin, R. Cammi, C. Pomelli, J. W. Ochterski, 
 R. L. Martin, K. Morokuma, V. G. Zakrzewski, G. A. Voth, 
 P. Salvador, J. J. Dannenberg, S. Dapprich, A. D. Daniels, 
 O. Farkas, J. B. Foresman, J. V. Ortiz, J. Cioslowski, 
 and D. J. Fox, Gaussian, Inc., Wallingford CT, 2013.
 
 ******************************************
 Gaussian 09:  AM64L-G09RevD.01 24-Apr-2013
                21-Jun-2017 
 ******************************************
 %chk=HF2PO4-A.chk
 Default route:  MaxDisk=70GB
 -------------------------------------------------
 # B3LYP/6-311G** geom=check guess=read output=wfx
 -------------------------------------------------
 1/29=2,38=1/1;
 2/12=2,40=1/2;
 3/5=4,6=6,7=101,11=2,14=-4,16=1,25=1,30=1,74=-5,116=-2/1,2,3;
 4/5=1/1;
 5/5=2,38=6/2;
 6/7=2,8=2,9=2,10=2,28=1/1;
 99/5=1,6=200,9=1/99;
 -------------------
 Title Card Required
 -------------------
 Structure from the checkpoint file:  "HF2PO4-A.chk"
 Charge = -1 Multiplicity = 1
 Redundant internal coordinates found in file.
 P,0,0.495777931,0.6501969966,-0.0513688819
 O,0,-1.9592161123,0.8821775171,-0.3765700096
 O,0,1.1222517143,-0.3230780329,-1.1063604832
 F,0,1.4586317605,2.1057163846,0.0585134254
 O,0,-0.8144500234,1.810767957,-0.7433756648
 O,0,-1.1608369546,0.0871599968,0.6424049692
 F,0,1.0869489345,0.2528966408,1.545939645
 Recover connectivity data from disk.
                          Input orientation:                          
 ---------------------------------------------------------------------
 Center     Atomic      Atomic             Coordinates (Angstroms)
 Number     Number       Type             X           Y           Z
 ---------------------------------------------------------------------
      1         15           0        0.495778    0.650197   -0.051369
      2          8           0       -1.959216    0.882178   -0.376570
      3          8           0        1.122252   -0.323078   -1.106360
      4          9           0        1.458632    2.105716    0.058513
      5          8           0       -0.814450    1.810768   -0.743376
      6          8           0       -1.160837    0.087160    0.642405
      7          9           0        1.086949    0.252897    1.545940
 ---------------------------------------------------------------------
                    Distance matrix (angstroms):
                    1          2          3          4          5
     1  P    0.000000
     2  O    2.487281   0.000000
     3  O    1.566123   3.388315   0.000000
     4  F    1.748628   3.656232   2.714613   0.000000
     5  O    1.882152   1.518985   2.904457   2.428358   0.000000
     6  O    1.882208   1.519135   2.904990   3.358142   2.238570
     7  F    1.748921   3.656660   2.714349   2.404896   3.359054
                    6          7
     6  O    0.000000
     7  F    2.428247   0.000000
 Stoichiometry    F2O4P(1-)
 Framework group  C1[X(F2O4P)]
 Deg. of freedom    15
 Full point group                 C1      NOp   1
 Largest Abelian subgroup         C1      NOp   1
 Largest concise Abelian subgroup C1      NOp   1
                         Standard orientation:                         
 ---------------------------------------------------------------------
 Center     Atomic      Atomic             Coordinates (Angstroms)
 Number     Number       Type             X           Y           Z
 ---------------------------------------------------------------------
      1         15           0        0.358499    0.000266   -0.182133
      2          8           0       -2.118669   -0.000562    0.041937
      3          8           0        0.795988    0.001007   -1.685910
      4          9           0        1.270404    1.202287    0.701763
      5          8           0       -1.104964    1.118993    0.204159
      6          8           0       -1.104158   -1.119577    0.204251
      7          9           0        1.271479   -1.202608    0.700072
 ---------------------------------------------------------------------
 Rotational constants (GHZ):      3.1292946      1.9994265      1.7966219
 Standard basis: 6-311G(d,p) (5D, 7F)
 There are   141 symmetry adapted cartesian basis functions of A   symmetry.
 There are   134 symmetry adapted basis functions of A   symmetry.
   134 basis functions,   238 primitive gaussians,   141 cartesian basis functions
    33 alpha electrons       33 beta electrons
       nuclear repulsion energy       429.0931814719 Hartrees.
 NAtoms=    7 NActive=    7 NUniq=    7 SFac= 1.00D+00 NAtFMM=   60 NAOKFM=F Big=F
 Integral buffers will be    131072 words long.
 Raffenetti 2 integral format.
 Two-electron integral symmetry is turned on.
 One-electron integrals computed using PRISM.
 NBasis=   134 RedAO= T EigKep=  1.80D-02  NBF=   134
 NBsUse=   134 1.00D-06 EigRej= -1.00D+00 NBFU=   134
 Initial guess from the checkpoint file:  "HF2PO4-A.chk"
 B after Tr=     0.000000    0.000000    0.000000
         Rot=    1.000000    0.000000    0.000000    0.000000 Ang=   0.00 deg.
 Keep R1 ints in memory in canonical form, NReq=42422747.
 Requested convergence on RMS density matrix=1.00D-08 within 128 cycles.
 Requested convergence on MAX density matrix=1.00D-06.
 Requested convergence on             energy=1.00D-06.
 No special actions if energy rises.
 SCF Done:  E(RB3LYP) =  -842.054561849     A.U. after    1 cycles
            NFock=  1  Conv=0.72D-08     -V/T= 2.0028

 **********************************************************************

            Population analysis using the SCF density.

 **********************************************************************

 Orbital symmetries:
       Occupied  (A) (A) (A) (A) (A) (A) (A) (A) (A) (A) (A) (A)
                 (A) (A) (A) (A) (A) (A) (A) (A) (A) (A) (A) (A)
                 (A) (A) (A) (A) (A) (A) (A) (A) (A)
       Virtual   (A) (A) (A) (A) (A) (A) (A) (A) (A) (A) (A) (A)
                 (A) (A) (A) (A) (A) (A) (A) (A) (A) (A) (A) (A)
                 (A) (A) (A) (A) (A) (A) (A) (A) (A) (A) (A) (A)
                 (A) (A) (A) (A) (A) (A) (A) (A) (A) (A) (A) (A)
                 (A) (A) (A) (A) (A) (A) (A) (A) (A) (A) (A) (A)
                 (A) (A) (A) (A) (A) (A) (A) (A) (A) (A) (A) (A)
                 (A) (A) (A) (A) (A) (A) (A) (A) (A) (A) (A) (A)
                 (A) (A) (A) (A) (A) (A) (A) (A) (A) (A) (A) (A)
                 (A) (A) (A) (A) (A)
 The electronic state is 1-A.
 Alpha  occ. eigenvalues --  -77.08272 -24.49215 -24.49201 -19.07075 -19.02312
 Alpha  occ. eigenvalues --  -19.02309 -18.93403  -6.55113  -4.71427  -4.71426
 Alpha  occ. eigenvalues --   -4.71190  -1.01964  -0.98744  -0.97037  -0.79465
 Alpha  occ. eigenvalues --   -0.79253  -0.67436  -0.43988  -0.36469  -0.33192
 Alpha  occ. eigenvalues --   -0.30041  -0.29350  -0.28804  -0.26753  -0.24079
 Alpha  occ. eigenvalues --   -0.23750  -0.21862  -0.21096  -0.18891  -0.15251
 Alpha  occ. eigenvalues --   -0.14447  -0.13416  -0.09595
 Alpha virt. eigenvalues --    0.11059   0.13443   0.13550   0.24716   0.26645
 Alpha virt. eigenvalues --    0.27062   0.35089   0.35617   0.39305   0.51384
 Alpha virt. eigenvalues --    0.70639   0.78692   0.79990   0.86127   0.88244
 Alpha virt. eigenvalues --    0.88536   0.92541   0.94712   0.96158   1.00206
 Alpha virt. eigenvalues --    1.03628   1.04342   1.07630   1.07944   1.11212
 Alpha virt. eigenvalues --    1.11495   1.14503   1.16872   1.21499   1.26169
 Alpha virt. eigenvalues --    1.31087   1.32778   1.38279   1.42380   1.57091
 Alpha virt. eigenvalues --    1.59628   1.63747   1.75025   1.75782   1.84026
 Alpha virt. eigenvalues --    1.84482   1.94958   2.53438   2.66281   2.71381
 Alpha virt. eigenvalues --    2.71774   2.74453   2.94269   2.99981   3.00060
 Alpha virt. eigenvalues --    3.01170   3.01326   3.12812   3.13361   3.16409
 Alpha virt. eigenvalues --    3.17865   3.20085   3.23766   3.30647   3.54706
 Alpha virt. eigenvalues --    3.68539   3.80948   3.95179   3.96162   3.96319
 Alpha virt. eigenvalues --    3.96424   3.96799   3.97130   3.97978   4.03923
 Alpha virt. eigenvalues --    4.17734   4.22388   4.75830   4.80081   4.85603
 Alpha virt. eigenvalues --    4.90849   4.94627   4.96208   4.98996   5.03941
 Alpha virt. eigenvalues --    5.04690   5.16902   5.35133   5.47741   6.17351
 Alpha virt. eigenvalues --    6.23785   6.28411   6.30139   6.30342   6.38236
 Alpha virt. eigenvalues --    6.91761  13.94664  13.95085  14.01369  49.83151
 Alpha virt. eigenvalues --   49.89792  49.90394  49.99712  66.84477  66.87791
 Alpha virt. eigenvalues --  162.90460
          Condensed to atoms (all electrons):
               1          2          3          4          5          6
     1  P   12.367492  -0.060340   0.523231   0.197967   0.191392   0.191391
     2  O   -0.060340   8.061993   0.001259   0.000700   0.055258   0.055278
     3  O    0.523231   0.001259   8.168976  -0.015887  -0.015301  -0.015272
     4  F    0.197967   0.000700  -0.015887   9.306605  -0.025806  -0.000516
     5  O    0.191392   0.055258  -0.015301  -0.025806   8.268335  -0.090629
     6  O    0.191391   0.055278  -0.015272  -0.000516  -0.090629   8.268244
     7  F    0.197918   0.000700  -0.015905  -0.023369  -0.000512  -0.025797
               7
     1  P    0.197918
     2  O    0.000700
     3  O   -0.015905
     4  F   -0.023369
     5  O   -0.000512
     6  O   -0.025797
     7  F    9.306836
 Mulliken charges:
               1
     1  P    1.390950
     2  O   -0.114848
     3  O   -0.631101
     4  F   -0.439694
     5  O   -0.382737
     6  O   -0.382699
     7  F   -0.439871
 Sum of Mulliken charges =  -1.00000
 Mulliken charges with hydrogens summed into heavy atoms:
               1
     1  P    1.390950
     2  O   -0.114848
     3  O   -0.631101
     4  F   -0.439694
     5  O   -0.382737
     6  O   -0.382699
     7  F   -0.439871
 Electronic spatial extent (au):  <R**2>=            729.5151
 Charge=             -1.0000 electrons
 Dipole moment (field-independent basis, Debye):
    X=             -0.5155    Y=              0.0008    Z=              1.2371  Tot=              1.3402
 Quadrupole moment (field-independent basis, Debye-Ang):
   XX=            -56.2175   YY=            -52.6868   ZZ=            -54.1705
   XY=              0.0030   XZ=              1.4066   YZ=              0.0028
 Traceless Quadrupole moment (field-independent basis, Debye-Ang):
   XX=             -1.8593   YY=              1.6715   ZZ=              0.1878
   XY=              0.0030   XZ=              1.4066   YZ=              0.0028
 Octapole moment (field-independent basis, Debye-Ang**2):
  XXX=              7.3444  YYY=              0.0057  ZZZ=             19.3798  XYY=              0.9834
  XXY=              0.0048  XXZ=              0.7067  XZZ=             -5.0224  YZZ=             -0.0126
  YYZ=             -1.7692  XYZ=              0.0024
 Hexadecapole moment (field-independent basis, Debye-Ang**3):
 XXXX=           -420.8800 YYYY=           -224.5287 ZZZZ=           -198.2683 XXXY=              0.0079
 XXXZ=              7.4094 YYYX=              0.0037 YYYZ=              0.0088 ZZZX=             17.1443
 ZZZY=              0.0184 XXYY=           -112.4522 XXZZ=           -105.2083 YYZZ=            -68.3541
 XXYZ=              0.0056 YYXZ=             -0.0790 ZZXY=             -0.0111
 N-N= 4.290931814719D+02 E-N=-2.872572784683D+03  KE= 8.396894534981D+02
 1\1\GINC-BLADI16\SP\RB3LYP\6-311G(d,p)\F2O4P1(1-)\SARARIOP\21-Jun-2017
 \0\\# B3LYP/6-311G** geom=check guess=read output=wfx\\Title Card Requ
 ired\\-1,1\P,0,0.495777931,0.6501969966,-0.0513688819\O,0,-1.959216112
 3,0.8821775171,-0.3765700096\O,0,1.1222517143,-0.3230780329,-1.1063604
 832\F,0,1.4586317605,2.1057163846,0.0585134254\O,0,-0.8144500234,1.810
 767957,-0.7433756648\O,0,-1.1608369546,0.0871599968,0.6424049692\F,0,1
 .0869489345,0.2528966408,1.545939645\\Version=AM64L-G09RevD.01\State=1
 -A\HF=-842.0545618\RMSD=7.232e-09\Dipole=-0.2626135,0.3176685,0.328844
 2\Quadrupole=-1.5618482,0.7451509,0.8166973,0.8447209,0.3450036,-0.409
 3152\PG=C01 [X(F2O4P1)]\\@

 Writing a WFNX file to "HF2PO4-A.wfx"


 A politician is a person who can make waves and then
 make you think he's the only one who can save the ship.
 -- Ivern Ball
 Job cpu time:       0 days  0 hours  0 minutes 39.2 seconds.
 File lengths (MBytes):  RWF=      9 Int=      0 D2E=      0 Chk=      4 Scr=      1
 Normal termination of Gaussian 09 at Wed Jun 21 17:44:11 2017.
