 Entering Gaussian System, Link 0=g09
 Initial command:
 /usr/local/gaussian/gaussian09.d1/g09/l1.exe "/scratch/sarariop/HF2PO4-h2o.com/Gau-21027.inp" -scrdir="/scratch/sarariop/HF2PO4-h2o.com/"
 Default is to use a total of   8 processors:
                                8 via shared-memory
                                1 via Linda
 Entering Link 1 = /usr/local/gaussian/gaussian09.d1/g09/l1.exe PID=     21028.
  
 Copyright (c) 1988,1990,1992,1993,1995,1998,2003,2009,2013,
            Gaussian, Inc.  All Rights Reserved.
  
 This is part of the Gaussian(R) 09 program.  It is based on
 the Gaussian(R) 03 system (copyright 2003, Gaussian, Inc.),
 the Gaussian(R) 98 system (copyright 1998, Gaussian, Inc.),
 the Gaussian(R) 94 system (copyright 1995, Gaussian, Inc.),
 the Gaussian 92(TM) system (copyright 1992, Gaussian, Inc.),
 the Gaussian 90(TM) system (copyright 1990, Gaussian, Inc.),
 the Gaussian 88(TM) system (copyright 1988, Gaussian, Inc.),
 the Gaussian 86(TM) system (copyright 1986, Carnegie Mellon
 University), and the Gaussian 82(TM) system (copyright 1983,
 Carnegie Mellon University). Gaussian is a federally registered
 trademark of Gaussian, Inc.
  
 This software contains proprietary and confidential information,
 including trade secrets, belonging to Gaussian, Inc.
  
 This software is provided under written license and may be
 used, copied, transmitted, or stored only in accord with that
 written license.
  
 The following legend is applicable only to US Government
 contracts under FAR:
  
                    RESTRICTED RIGHTS LEGEND
  
 Use, reproduction and disclosure by the US Government is
 subject to restrictions as set forth in subparagraphs (a)
 and (c) of the Commercial Computer Software - Restricted
 Rights clause in FAR 52.227-19.
  
 Gaussian, Inc.
 340 Quinnipiac St., Bldg. 40, Wallingford CT 06492
  
  
 ---------------------------------------------------------------
 Warning -- This program may not be used in any manner that
 competes with the business of Gaussian, Inc. or will provide
 assistance to any competitor of Gaussian, Inc.  The licensee
 of this program is prohibited from giving any competitor of
 Gaussian, Inc. access to this program.  By using this program,
 the user acknowledges that Gaussian, Inc. is engaged in the
 business of creating and licensing software in the field of
 computational chemistry and represents and warrants to the
 licensee that it is not a competitor of Gaussian, Inc. and that
 it will not use this program in any manner prohibited above.
 ---------------------------------------------------------------
  

 Cite this work as:
 Gaussian 09, Revision D.01,
 M. J. Frisch, G. W. Trucks, H. B. Schlegel, G. E. Scuseria, 
 M. A. Robb, J. R. Cheeseman, G. Scalmani, V. Barone, B. Mennucci, 
 G. A. Petersson, H. Nakatsuji, M. Caricato, X. Li, H. P. Hratchian, 
 A. F. Izmaylov, J. Bloino, G. Zheng, J. L. Sonnenberg, M. Hada, 
 M. Ehara, K. Toyota, R. Fukuda, J. Hasegawa, M. Ishida, T. Nakajima, 
 Y. Honda, O. Kitao, H. Nakai, T. Vreven, J. A. Montgomery, Jr., 
 J. E. Peralta, F. Ogliaro, M. Bearpark, J. J. Heyd, E. Brothers, 
 K. N. Kudin, V. N. Staroverov, T. Keith, R. Kobayashi, J. Normand, 
 K. Raghavachari, A. Rendell, J. C. Burant, S. S. Iyengar, J. Tomasi, 
 M. Cossi, N. Rega, J. M. Millam, M. Klene, J. E. Knox, J. B. Cross, 
 V. Bakken, C. Adamo, J. Jaramillo, R. Gomperts, R. E. Stratmann, 
 O. Yazyev, A. J. Austin, R. Cammi, C. Pomelli, J. W. Ochterski, 
 R. L. Martin, K. Morokuma, V. G. Zakrzewski, G. A. Voth, 
 P. Salvador, J. J. Dannenberg, S. Dapprich, A. D. Daniels, 
 O. Farkas, J. B. Foresman, J. V. Ortiz, J. Cioslowski, 
 and D. J. Fox, Gaussian, Inc., Wallingford CT, 2013.
 
 ******************************************
 Gaussian 09:  AM64L-G09RevD.01 24-Apr-2013
                21-Jun-2017 
 ******************************************
 %chk=HF2PO4-h2o.chk
 Default route:  MaxDisk=56GB
 -----------------------------------------
 # opt freq b3lyp/6-311g geom=connectivity
 -----------------------------------------
 1/14=-1,18=20,19=15,26=3,38=1,57=2/1,3;
 2/9=110,12=2,17=6,18=5,40=1/2;
 3/5=4,6=6,11=2,16=1,25=1,30=1,71=1,74=-5/1,2,3;
 4//1;
 5/5=2,38=5/2;
 6/7=2,8=2,9=2,10=2,28=1/1;
 7//1,2,3,16;
 1/14=-1,18=20,19=15,26=3/3(2);
 2/9=110/2;
 99//99;
 2/9=110/2;
 3/5=4,6=6,11=2,16=1,25=1,30=1,71=1,74=-5/1,2,3;
 4/5=5,16=3,69=1/1;
 5/5=2,38=5/2;
 7//1,2,3,16;
 1/14=-1,18=20,19=15,26=3/3(-5);
 2/9=110/2;
 6/7=2,8=2,9=2,10=2,19=2,28=1/1;
 99/9=1/99;
 -------------------
 Title Card Required
 -------------------
 Symbolic Z-matrix:
 Charge =  0 Multiplicity = 1
 P                     0.27845   0.23002   0. 
 O                    -1.98957   0.4473   -0.1217 
 O                     1.00492  -0.85807  -0.90776 
 H                     1.9116   -0.61125  -1.135 
 F                     1.39644   1.36888  -0.27176 
 O                    -0.87211   1.36221  -0.32529 
 O                    -1.13256  -0.70658   0.08627 
 F                     0.69608   0.06275   1.50942 
 O                     3.06295   0.35109  -0.00218 
 H                     4.02295   0.35109  -0.00218 
 H                     2.7425    1.25603  -0.00218 
 
 Add virtual bond connecting atoms H11        and F5         Dist= 2.60D+00.
 Add virtual bond connecting atoms O6         and O2         Dist= 2.76D+00.
 Add virtual bond connecting atoms O7         and O2         Dist= 2.74D+00.

 GradGradGradGradGradGradGradGradGradGradGradGradGradGradGradGradGradGrad
 Berny optimization.
 Initialization pass.
                           ----------------------------
                           !    Initial Parameters    !
                           ! (Angstroms and Degrees)  !
 --------------------------                            --------------------------
 ! Name  Definition              Value          Derivative Info.                !
 --------------------------------------------------------------------------------
 ! R1    R(1,3)                  1.5924         estimate D2E/DX2                !
 ! R2    R(1,5)                  1.6189         estimate D2E/DX2                !
 ! R3    R(1,6)                  1.6466         estimate D2E/DX2                !
 ! R4    R(1,7)                  1.6958         estimate D2E/DX2                !
 ! R5    R(1,8)                  1.575          estimate D2E/DX2                !
 ! R6    R(2,6)                  1.4585         estimate D2E/DX2                !
 ! R7    R(2,7)                  1.4523         estimate D2E/DX2                !
 ! R8    R(3,4)                  0.9668         estimate D2E/DX2                !
 ! R9    R(5,11)                 1.3774         estimate D2E/DX2                !
 ! R10   R(9,10)                 0.96           estimate D2E/DX2                !
 ! R11   R(9,11)                 0.96           estimate D2E/DX2                !
 ! A1    A(3,1,5)               94.0106         estimate D2E/DX2                !
 ! A2    A(3,1,6)              132.53           estimate D2E/DX2                !
 ! A3    A(3,1,7)               91.7883         estimate D2E/DX2                !
 ! A4    A(3,1,8)              110.657          estimate D2E/DX2                !
 ! A5    A(5,1,6)               88.0333         estimate D2E/DX2                !
 ! A6    A(5,1,8)               93.0081         estimate D2E/DX2                !
 ! A7    A(6,1,7)               78.9543         estimate D2E/DX2                !
 ! A8    A(6,1,8)              116.5904         estimate D2E/DX2                !
 ! A9    A(7,1,8)               96.5007         estimate D2E/DX2                !
 ! A10   A(6,2,7)               93.7992         estimate D2E/DX2                !
 ! A11   A(1,3,4)              112.7929         estimate D2E/DX2                !
 ! A12   A(1,5,11)             125.759          estimate D2E/DX2                !
 ! A13   A(1,6,2)               94.3854         estimate D2E/DX2                !
 ! A14   A(1,7,2)               92.5739         estimate D2E/DX2                !
 ! A15   A(10,9,11)            109.5            estimate D2E/DX2                !
 ! A16   A(5,11,9)             113.7935         estimate D2E/DX2                !
 ! A17   L(5,1,7,3,-1)         185.7988         estimate D2E/DX2                !
 ! A18   L(5,1,7,3,-2)         192.3739         estimate D2E/DX2                !
 ! D1    D(5,1,3,4)             13.608          estimate D2E/DX2                !
 ! D2    D(6,1,3,4)            104.6182         estimate D2E/DX2                !
 ! D3    D(7,1,3,4)           -178.7659         estimate D2E/DX2                !
 ! D4    D(8,1,3,4)            -81.1331         estimate D2E/DX2                !
 ! D5    D(3,1,5,11)           -57.8207         estimate D2E/DX2                !
 ! D6    D(6,1,5,11)           169.6764         estimate D2E/DX2                !
 ! D7    D(8,1,5,11)            53.1452         estimate D2E/DX2                !
 ! D8    D(11,5,7,2)           166.2585         estimate D2E/DX2                !
 ! D9    D(3,1,6,2)             86.0035         estimate D2E/DX2                !
 ! D10   D(5,1,6,2)            179.6423         estimate D2E/DX2                !
 ! D11   D(7,1,6,2)              3.8152         estimate D2E/DX2                !
 ! D12   D(8,1,6,2)            -87.9775         estimate D2E/DX2                !
 ! D13   D(3,1,7,2)           -136.9008         estimate D2E/DX2                !
 ! D14   D(6,1,7,2)             -3.8242         estimate D2E/DX2                !
 ! D15   D(8,1,7,2)            112.0735         estimate D2E/DX2                !
 ! D16   D(7,2,6,1)             -4.383          estimate D2E/DX2                !
 ! D17   D(6,2,7,1)              4.2476         estimate D2E/DX2                !
 ! D18   D(1,5,11,9)            25.8217         estimate D2E/DX2                !
 ! D19   D(10,9,11,5)          167.6492         estimate D2E/DX2                !
 --------------------------------------------------------------------------------
 Trust Radius=3.00D-01 FncErr=1.00D-07 GrdErr=1.00D-06
 Number of steps in this run=     58 maximum allowed number of steps=    100.
 GradGradGradGradGradGradGradGradGradGradGradGradGradGradGradGradGradGrad

                          Input orientation:                          
 ---------------------------------------------------------------------
 Center     Atomic      Atomic             Coordinates (Angstroms)
 Number     Number       Type             X           Y           Z
 ---------------------------------------------------------------------
      1         15           0        0.278450    0.230024    0.000000
      2          8           0       -1.989572    0.447296   -0.121696
      3          8           0        1.004923   -0.858068   -0.907761
      4          1           0        1.911598   -0.611248   -1.134998
      5          9           0        1.396438    1.368883   -0.271764
      6          8           0       -0.872111    1.362205   -0.325286
      7          8           0       -1.132558   -0.706576    0.086273
      8          9           0        0.696077    0.062750    1.509417
      9          8           0        3.062954    0.351090   -0.002180
     10          1           0        4.022954    0.351090   -0.002180
     11          1           0        2.742500    1.256025   -0.002180
 ---------------------------------------------------------------------
                    Distance matrix (angstroms):
                    1          2          3          4          5
     1  P    0.000000
     2  O    2.281653   0.000000
     3  O    1.592400   3.359892   0.000000
     4  H    2.159428   4.167304   0.966756   0.000000
     5  F    1.618874   3.512393   2.348848   2.220694   0.000000
     6  O    1.646644   1.458501   2.965155   3.507020   2.269190
     7  O    1.695761   1.452289   2.362177   3.281383   3.291131
     8  F    1.575034   3.165615   2.605003   2.987423   2.317131
     9  O    2.787135   5.054855   2.552965   1.880157   1.971257
    10  H    3.746461   6.014483   3.375003   2.582091   2.829693
    11  H    2.669124   4.802169   2.882471   2.336746   1.377423
                    6          7          8          9         10
     6  O    0.000000
     7  O    2.125340   0.000000
     8  F    2.741155   2.441538   0.000000
     9  O    4.075719   4.327678   2.823149   0.000000
    10  H    5.008833   5.263628   3.665539   0.960000   0.000000
    11  H    3.630575   4.344617   2.810102   0.960000   1.567952
                   11
    11  H    0.000000
 Stoichiometry    F2H3O5P
 Framework group  C1[X(F2H3O5P)]
 Deg. of freedom    27
 Full point group                 C1      NOp   1
 Largest Abelian subgroup         C1      NOp   1
 Largest concise Abelian subgroup C1      NOp   1
                         Standard orientation:                         
 ---------------------------------------------------------------------
 Center     Atomic      Atomic             Coordinates (Angstroms)
 Number     Number       Type             X           Y           Z
 ---------------------------------------------------------------------
      1         15           0       -0.148214   -0.055725    0.002180
      2          8           0       -2.407510    0.238749   -0.119516
      3          8           0        0.540738   -1.167953   -0.905581
      4          1           0        1.455302   -0.952189   -1.132818
      5          9           0        1.007953    1.044355   -0.269584
      6          8           0       -1.259505    1.115026   -0.323106
      7          8           0       -1.590335   -0.943672    0.088453
      8          9           0        0.263467   -0.237140    1.511597
      9          8           0        2.638798   -0.029667    0.000000
     10          1           0        3.598240   -0.062398    0.000000
     11          1           0        2.349384    0.885669    0.000000
 ---------------------------------------------------------------------
 Rotational constants (GHZ):      3.5681498      1.3390460      1.2729526
 Standard basis: 6-311G (5D, 7F)
 There are   121 symmetry adapted cartesian basis functions of A   symmetry.
 There are   121 symmetry adapted basis functions of A   symmetry.
   121 basis functions,   237 primitive gaussians,   121 cartesian basis functions
    38 alpha electrons       38 beta electrons
       nuclear repulsion energy       601.8029549826 Hartrees.



 Warning!  P  atom    1 may be hypervalent but has no d functions.



 NAtoms=   11 NActive=   11 NUniq=   11 SFac= 1.00D+00 NAtFMM=   60 NAOKFM=F Big=F
 Integral buffers will be    131072 words long.
 Raffenetti 2 integral format.
 Two-electron integral symmetry is turned on.
 One-electron integrals computed using PRISM.
 NBasis=   121 RedAO= T EigKep=  1.18D-02  NBF=   121
 NBsUse=   121 1.00D-06 EigRej= -1.00D+00 NBFU=   121
 ExpMin= 6.85D-02 ExpMax= 7.75D+04 ExpMxC= 2.65D+03 IAcc=2 IRadAn=         4 AccDes= 0.00D+00
 Harris functional with IExCor=  402 and IRadAn=       4 diagonalized for initial guess.
 HarFok:  IExCor=  402 AccDes= 0.00D+00 IRadAn=         4 IDoV= 1 UseB2=F ITyADJ=14
 ICtDFT=  3500011 ScaDFX=  1.000000  1.000000  1.000000  1.000000
 FoFCou: FMM=F IPFlag=           0 FMFlag=      100000 FMFlg1=           0
         NFxFlg=           0 DoJE=T BraDBF=F KetDBF=T FulRan=T
         wScrn=  0.000000 ICntrl=     500 IOpCl=  0 I1Cent=   200000004 NGrid=           0
         NMat0=    1 NMatS0=      1 NMatT0=    0 NMatD0=    1 NMtDS0=    0 NMtDT0=    0
 Petite list used in FoFCou.
 Keep R1 ints in memory in canonical form, NReq=28251611.
 Requested convergence on RMS density matrix=1.00D-08 within 128 cycles.
 Requested convergence on MAX density matrix=1.00D-06.
 Requested convergence on             energy=1.00D-06.
 No special actions if energy rises.
 Integral accuracy reduced to 1.0D-05 until final iterations.
 Initial convergence to 1.0D-05 achieved.  Increase integral accuracy.
 SCF Done:  E(RB3LYP) =  -918.706334425     A.U. after   16 cycles
            NFock= 16  Conv=0.46D-08     -V/T= 2.0002

 **********************************************************************

            Population analysis using the SCF density.

 **********************************************************************

 Orbital symmetries:
       Occupied  (A) (A) (A) (A) (A) (A) (A) (A) (A) (A) (A) (A)
                 (A) (A) (A) (A) (A) (A) (A) (A) (A) (A) (A) (A)
                 (A) (A) (A) (A) (A) (A) (A) (A) (A) (A) (A) (A)
                 (A) (A)
       Virtual   (A) (A) (A) (A) (A) (A) (A) (A) (A) (A) (A) (A)
                 (A) (A) (A) (A) (A) (A) (A) (A) (A) (A) (A) (A)
                 (A) (A) (A) (A) (A) (A) (A) (A) (A) (A) (A) (A)
                 (A) (A) (A) (A) (A) (A) (A) (A) (A) (A) (A) (A)
                 (A) (A) (A) (A) (A) (A) (A) (A) (A) (A) (A) (A)
                 (A) (A) (A) (A) (A) (A) (A) (A) (A) (A) (A) (A)
                 (A) (A) (A) (A) (A) (A) (A) (A) (A) (A) (A)
 The electronic state is 1-A.
 Alpha  occ. eigenvalues --  -77.36793 -24.73879 -24.72808 -19.29528 -19.26655
 Alpha  occ. eigenvalues --  -19.23276 -19.20099 -19.13270  -6.85675  -5.01839
 Alpha  occ. eigenvalues --   -5.01760  -5.01663  -1.34060  -1.28537  -1.27617
 Alpha  occ. eigenvalues --   -1.12908  -1.06961  -1.05155  -0.93951  -0.71286
 Alpha  occ. eigenvalues --   -0.67338  -0.62630  -0.60062  -0.58000  -0.55298
 Alpha  occ. eigenvalues --   -0.53026  -0.51980  -0.50379  -0.48377  -0.46671
 Alpha  occ. eigenvalues --   -0.44259  -0.42993  -0.41752  -0.39788  -0.39584
 Alpha  occ. eigenvalues --   -0.38907  -0.33860  -0.31198
 Alpha virt. eigenvalues --   -0.08116  -0.06398  -0.03413   0.02221   0.03151
 Alpha virt. eigenvalues --    0.08945   0.10354   0.11585   0.15079   0.16784
 Alpha virt. eigenvalues --    0.19144   0.19761   0.30220   0.33948   0.40031
 Alpha virt. eigenvalues --    0.41887   0.64061   0.65176   0.68502   0.72299
 Alpha virt. eigenvalues --    0.73871   0.75017   0.76328   0.78585   0.82178
 Alpha virt. eigenvalues --    0.84120   0.87116   0.88369   0.92310   0.93841
 Alpha virt. eigenvalues --    0.96530   1.00785   1.06491   1.08323   1.10461
 Alpha virt. eigenvalues --    1.17504   1.23336   1.24004   1.26090   1.34764
 Alpha virt. eigenvalues --    1.38477   1.40467   1.43556   1.51350   1.59094
 Alpha virt. eigenvalues --    1.66318   1.84001   2.14813   2.19397   2.25816
 Alpha virt. eigenvalues --    4.30809   4.41353   4.61386   4.64231   4.68031
 Alpha virt. eigenvalues --    4.72369   4.74014   4.77191   4.78630   4.80223
 Alpha virt. eigenvalues --    4.90885   4.95244   5.08326   5.09266   5.19803
 Alpha virt. eigenvalues --    5.92882   6.03142   6.04040   6.07854   6.16045
 Alpha virt. eigenvalues --    6.22014   6.67067  13.57034  13.67878  13.76950
 Alpha virt. eigenvalues --   49.62643  49.66015  49.69817  49.72351  49.73458
 Alpha virt. eigenvalues --   66.62048  66.67449 162.69923
          Condensed to atoms (all electrons):
               1          2          3          4          5          6
     1  P   12.528075  -0.086337   0.170381  -0.032036   0.083498   0.123659
     2  O   -0.086337   8.097749   0.003967  -0.000102   0.001441  -0.021885
     3  O    0.170381   0.003967   8.524034   0.235568  -0.064438  -0.011314
     4  H   -0.032036  -0.000102   0.235568   0.301566   0.000604  -0.001508
     5  F    0.083498   0.001441  -0.064438   0.000604   9.692156  -0.053795
     6  O    0.123659  -0.021885  -0.011314  -0.001508  -0.053795   8.497205
     7  O    0.198911  -0.007744  -0.073569   0.000571   0.005341  -0.123644
     8  F    0.131859   0.004502  -0.038836  -0.001117  -0.045209  -0.022618
     9  O    0.019974   0.000002  -0.033338   0.057832  -0.117347   0.000006
    10  H   -0.000602  -0.000002   0.001137  -0.002544   0.007433   0.000023
    11  H   -0.008714  -0.000042   0.005475  -0.006029  -0.020071   0.000143
               7          8          9         10         11
     1  P    0.198911   0.131859   0.019974  -0.000602  -0.008714
     2  O   -0.007744   0.004502   0.000002  -0.000002  -0.000042
     3  O   -0.073569  -0.038836  -0.033338   0.001137   0.005475
     4  H    0.000571  -0.001117   0.057832  -0.002544  -0.006029
     5  F    0.005341  -0.045209  -0.117347   0.007433  -0.020071
     6  O   -0.123644  -0.022618   0.000006   0.000023   0.000143
     7  O    8.407153  -0.052321  -0.000055   0.000005  -0.000061
     8  F   -0.052321   9.420700  -0.000905   0.000183   0.000059
     9  O   -0.000055  -0.000905   8.400346   0.240493   0.236295
    10  H    0.000005   0.000183   0.240493   0.397703  -0.022729
    11  H   -0.000061   0.000059   0.236295  -0.022729   0.372413
 Mulliken charges:
               1
     1  P    1.871331
     2  O    0.008450
     3  O   -0.719067
     4  H    0.447196
     5  F   -0.489614
     6  O   -0.386271
     7  O   -0.354587
     8  F   -0.396297
     9  O   -0.803302
    10  H    0.378901
    11  H    0.443260
 Sum of Mulliken charges =   0.00000
 Mulliken charges with hydrogens summed into heavy atoms:
               1
     1  P    1.871331
     2  O    0.008450
     3  O   -0.271871
     5  F   -0.489614
     6  O   -0.386271
     7  O   -0.354587
     8  F   -0.396297
     9  O    0.018858
 Electronic spatial extent (au):  <R**2>=            966.4003
 Charge=              0.0000 electrons
 Dipole moment (field-independent basis, Debye):
    X=              4.2486    Y=              1.4754    Z=             -1.0139  Tot=              4.6104
 Quadrupole moment (field-independent basis, Debye-Ang):
   XX=            -43.4606   YY=            -56.5986   ZZ=            -53.7111
   XY=              1.0227   XZ=             -2.8042   YZ=              0.8095
 Traceless Quadrupole moment (field-independent basis, Debye-Ang):
   XX=              7.7962   YY=             -5.3418   ZZ=             -2.4543
   XY=              1.0227   XZ=             -2.8042   YZ=              0.8095
 Octapole moment (field-independent basis, Debye-Ang**2):
  XXX=             66.2311  YYY=              5.6305  ZZZ=             -1.8870  XYY=              9.6307
  XXY=              6.8502  XXZ=             -2.6210  XZZ=              3.1403  YZZ=              2.5968
  YYZ=              5.0292  XYZ=              1.9136
 Hexadecapole moment (field-independent basis, Debye-Ang**3):
 XXXX=           -508.1411 YYYY=           -214.9085 ZZZZ=           -155.1867 XXXY=             14.7811
 XXXZ=             -7.5074 YYYX=              3.4867 YYYZ=             -3.9104 ZZZX=             -5.7958
 ZZZY=             -0.6320 XXYY=           -146.4134 XXZZ=           -142.0293 YYZZ=            -60.6982
 XXYZ=              5.5452 YYXZ=             -1.6291 ZZXY=             -1.3992
 N-N= 6.018029549826D+02 E-N=-3.383671565356D+03  KE= 9.185269384568D+02
 Calling FoFJK, ICntrl=      2127 FMM=F ISym2X=0 I1Cent= 0 IOpClX= 0 NMat=1 NMatS=1 NMatT=0.
 ***** Axes restored to original set *****
 -------------------------------------------------------------------
 Center     Atomic                   Forces (Hartrees/Bohr)
 Number     Number              X              Y              Z
 -------------------------------------------------------------------
      1       15           0.016864699   -0.043805587   -0.015807701
      2        8          -0.064133289    0.008440682   -0.000432957
      3        8           0.000134704   -0.022496663   -0.029335802
      4        1           0.023671619   -0.003585554    0.003450329
      5        9          -0.051334491    0.098196695   -0.024822131
      6        8          -0.016595910    0.062383498   -0.017212599
      7        8          -0.032770567   -0.056618171    0.008193219
      8        9           0.014972133   -0.002417381    0.067440299
      9        8           0.074828213   -0.030766102   -0.000663342
     10        1           0.011754410   -0.012856895    0.003881538
     11        1           0.022608480    0.003525478    0.005309145
 -------------------------------------------------------------------
 Cartesian Forces:  Max     0.098196695 RMS     0.035882096

 GradGradGradGradGradGradGradGradGradGradGradGradGradGradGradGradGradGrad
 Berny optimization.
 FormGI is forming the generalized inverse of G from B-inverse, IUseBI=4.
 Internal  Forces:  Max     0.111650278 RMS     0.034074725
 Search for a local minimum.
 Step number   1 out of a maximum of   58
 All quantities printed in internal units (Hartrees-Bohrs-Radians)
 Mixed Optimization -- RFO/linear search
 Second derivative matrix not updated -- first step.
 ITU=  0
     Eigenvalues ---    0.00230   0.01558   0.01685   0.02354   0.03513
     Eigenvalues ---    0.06922   0.09418   0.12237   0.14025   0.15204
     Eigenvalues ---    0.15993   0.16000   0.16000   0.16055   0.17015
     Eigenvalues ---    0.23898   0.25000   0.33634   0.35771   0.36821
     Eigenvalues ---    0.41665   0.47734   0.52716   0.54045   0.55473
     Eigenvalues ---    0.55473   0.56365
 RFO step:  Lambda=-1.31566694D-01 EMin= 2.30000000D-03
 Linear search not attempted -- first point.
 Maximum step size (   0.300) exceeded in Quadratic search.
    -- Step size scaled by   0.521
 Iteration  1 RMS(Cart)=  0.12850818 RMS(Int)=  0.00452667
 Iteration  2 RMS(Cart)=  0.00639118 RMS(Int)=  0.00005756
 Iteration  3 RMS(Cart)=  0.00004251 RMS(Int)=  0.00005322
 Iteration  4 RMS(Cart)=  0.00000000 RMS(Int)=  0.00005322
 Variable       Old X    -DE/DX   Delta X   Delta X   Delta X     New X
                                 (Linear)    (Quad)   (Total)
    R1        3.00920   0.04344   0.00000   0.03433   0.03433   3.04352
    R2        3.05923   0.08360   0.00000   0.07146   0.07146   3.13069
    R3        3.11171   0.06550   0.00000   0.06219   0.06224   3.17395
    R4        3.20452   0.06538   0.00000   0.06981   0.06987   3.27439
    R5        2.97638   0.06886   0.00000   0.05155   0.05155   3.02794
    R6        2.75617   0.04219   0.00000   0.04227   0.04221   2.79838
    R7        2.74443   0.04295   0.00000   0.04173   0.04167   2.78610
    R8        1.82690   0.02048   0.00000   0.01586   0.01586   1.84276
    R9        2.60295   0.11165   0.00000   0.20491   0.20491   2.80787
   R10        1.81414   0.01175   0.00000   0.00891   0.00891   1.82305
   R11        1.81414   0.07000   0.00000   0.05309   0.05309   1.86723
    A1        1.64079  -0.00005   0.00000   0.00261   0.00264   1.64344
    A2        2.31308   0.00128   0.00000   0.00250   0.00255   2.31563
    A3        1.60201   0.00988   0.00000   0.01480   0.01475   1.61675
    A4        1.93133   0.00252   0.00000   0.00481   0.00478   1.93611
    A5        1.53647  -0.00224   0.00000  -0.00974  -0.00979   1.52669
    A6        1.62330   0.00347   0.00000   0.00762   0.00757   1.63087
    A7        1.37801  -0.01181   0.00000  -0.01658  -0.01649   1.36152
    A8        2.03489  -0.00386   0.00000  -0.00721  -0.00722   2.02766
    A9        1.68425   0.00204   0.00000   0.00392   0.00381   1.68807
   A10        1.63710  -0.00412   0.00000  -0.00943  -0.00957   1.62753
   A11        1.96861   0.00664   0.00000   0.01185   0.01185   1.98045
   A12        2.19491   0.02517   0.00000   0.04494   0.04494   2.23985
   A13        1.64734   0.00797   0.00000   0.01428   0.01431   1.66164
   A14        1.61572   0.00802   0.00000   0.01167   0.01169   1.62741
   A15        1.91114   0.02330   0.00000   0.04159   0.04159   1.95273
   A16        1.98607   0.09784   0.00000   0.13346   0.13346   2.11953
   A17        3.24280   0.00983   0.00000   0.01741   0.01739   3.26019
   A18        3.35756   0.01015   0.00000   0.01996   0.01993   3.37749
    D1        0.23750   0.00948   0.00000   0.02631   0.02631   0.26382
    D2        1.82593   0.00650   0.00000   0.01568   0.01564   1.84157
    D3       -3.12005  -0.00068   0.00000   0.00635   0.00638  -3.11367
    D4       -1.41604   0.00551   0.00000   0.01664   0.01665  -1.39939
    D5       -1.00916   0.00543   0.00000   0.01846   0.01840  -0.99076
    D6        2.96141   0.00429   0.00000   0.01652   0.01641   2.97782
    D7        0.92756   0.00830   0.00000   0.02424   0.02419   0.95175
    D8        2.90176   0.00478   0.00000   0.01772   0.01791   2.91967
    D9        1.50104   0.00160   0.00000   0.00441   0.00444   1.50548
   D10        3.13535  -0.00049   0.00000  -0.00092  -0.00092   3.13443
   D11        0.06659  -0.00052   0.00000   0.00037   0.00041   0.06700
   D12       -1.53550   0.00233   0.00000   0.00284   0.00281  -1.53268
   D13       -2.38937  -0.00006   0.00000  -0.00171  -0.00170  -2.39107
   D14       -0.06674   0.00056   0.00000  -0.00034  -0.00038  -0.06713
   D15        1.95605  -0.00408   0.00000  -0.00886  -0.00891   1.94714
   D16       -0.07650   0.00043   0.00000  -0.00064  -0.00067  -0.07717
   D17        0.07413  -0.00038   0.00000   0.00044   0.00047   0.07461
   D18        0.45067   0.01462   0.00000   0.05684   0.05684   0.50751
   D19        2.92603   0.00663   0.00000   0.02346   0.02346   2.94949
         Item               Value     Threshold  Converged?
 Maximum Force            0.111650     0.000450     NO 
 RMS     Force            0.034075     0.000300     NO 
 Maximum Displacement     0.474895     0.001800     NO 
 RMS     Displacement     0.132350     0.001200     NO 
 Predicted change in Energy=-5.701232D-02
 GradGradGradGradGradGradGradGradGradGradGradGradGradGradGradGradGradGrad

                          Input orientation:                          
 ---------------------------------------------------------------------
 Center     Atomic      Atomic             Coordinates (Angstroms)
 Number     Number       Type             X           Y           Z
 ---------------------------------------------------------------------
      1         15           0        0.212819    0.194631    0.007402
      2          8           0       -2.100736    0.495867   -0.140446
      3          8           0        0.934584   -0.910538   -0.915405
      4          1           0        1.863088   -0.696794   -1.123030
      5          9           0        1.376763    1.345070   -0.250165
      6          8           0       -0.928411    1.382449   -0.320732
      7          8           0       -1.267928   -0.703468    0.063760
      8          9           0        0.608396    0.000796    1.547973
      9          8           0        3.314258    0.388252   -0.034915
     10          1           0        4.271699    0.504752   -0.014593
     11          1           0        2.837123    1.252455    0.007796
 ---------------------------------------------------------------------
                    Distance matrix (angstroms):
                    1          2          3          4          5
     1  P    0.000000
     2  O    2.337764   0.000000
     3  O    1.610564   3.433905   0.000000
     4  H    2.189955   4.254388   0.975149   0.000000
     5  F    1.656688   3.581366   2.392871   2.273239   0.000000
     6  O    1.679580   1.480837   3.013665   3.572031   2.306557
     7  O    1.732734   1.474338   2.419235   3.348399   3.359977
     8  F    1.602315   3.230365   2.646726   3.032349   2.372923
     9  O    3.107765   5.417091   2.850433   2.113578   2.171571
    10  H    4.070770   6.373684   3.735083   2.910971   3.023621
    11  H    2.829482   4.997685   3.024979   2.455012   1.485858
                    6          7          8          9         10
     6  O    0.000000
     7  O    2.148058   0.000000
     8  F    2.786181   2.493886   0.000000
     9  O    4.366962   4.711476   3.158693   0.000000
    10  H    5.282539   5.670397   4.014396   0.964717   0.000000
    11  H    3.782073   4.547550   2.984296   0.988093   1.617890
                   11
    11  H    0.000000
 Stoichiometry    F2H3O5P
 Framework group  C1[X(F2H3O5P)]
 Deg. of freedom    27
 Full point group                 C1      NOp   1
 Largest Abelian subgroup         C1      NOp   1
 Largest concise Abelian subgroup C1      NOp   1
                         Standard orientation:                         
 ---------------------------------------------------------------------
 Center     Atomic      Atomic             Coordinates (Angstroms)
 Number     Number       Type             X           Y           Z
 ---------------------------------------------------------------------
      1         15           0       -0.180297   -0.079286    0.008086
      2          8           0       -2.480877    0.307690   -0.142653
      3          8           0        0.502484   -1.204536   -0.920105
      4          1           0        1.438689   -1.023792   -1.124477
      5          9           0        1.025719    1.029156   -0.239901
      6          8           0       -1.276357    1.151675   -0.314987
      7          8           0       -1.693168   -0.922680    0.055787
      8          9           0        0.204361   -0.297012    1.548231
      9          8           0        2.926251    0.000461   -0.026625
     10          1           0        3.887277    0.081562   -0.003603
     11          1           0        2.481096    0.881339    0.020490
 ---------------------------------------------------------------------
 Rotational constants (GHZ):      3.4434659      1.2044794      1.1487274
 Standard basis: 6-311G (5D, 7F)
 There are   121 symmetry adapted cartesian basis functions of A   symmetry.
 There are   121 symmetry adapted basis functions of A   symmetry.
   121 basis functions,   237 primitive gaussians,   121 cartesian basis functions
    38 alpha electrons       38 beta electrons
       nuclear repulsion energy       582.6406990995 Hartrees.



 Warning!  P  atom    1 may be hypervalent but has no d functions.



 NAtoms=   11 NActive=   11 NUniq=   11 SFac= 1.00D+00 NAtFMM=   60 NAOKFM=F Big=F
 Integral buffers will be    131072 words long.
 Raffenetti 2 integral format.
 Two-electron integral symmetry is turned on.
 One-electron integrals computed using PRISM.
 NBasis=   121 RedAO= T EigKep=  1.30D-02  NBF=   121
 NBsUse=   121 1.00D-06 EigRej= -1.00D+00 NBFU=   121
 Initial guess from the checkpoint file:  "HF2PO4-h2o.chk"
 B after Tr=     0.000000    0.000000    0.000000
         Rot=    0.999945   -0.008366    0.002531    0.005740 Ang=  -1.20 deg.
 ExpMin= 6.85D-02 ExpMax= 7.75D+04 ExpMxC= 2.65D+03 IAcc=2 IRadAn=         4 AccDes= 0.00D+00
 Harris functional with IExCor=  402 and IRadAn=       4 diagonalized for initial guess.
 HarFok:  IExCor=  402 AccDes= 0.00D+00 IRadAn=         4 IDoV= 1 UseB2=F ITyADJ=14
 ICtDFT=  3500011 ScaDFX=  1.000000  1.000000  1.000000  1.000000
 FoFCou: FMM=F IPFlag=           0 FMFlag=      100000 FMFlg1=           0
         NFxFlg=           0 DoJE=T BraDBF=F KetDBF=T FulRan=T
         wScrn=  0.000000 ICntrl=     500 IOpCl=  0 I1Cent=   200000004 NGrid=           0
         NMat0=    1 NMatS0=      1 NMatT0=    0 NMatD0=    1 NMtDS0=    0 NMtDT0=    0
 Petite list used in FoFCou.
 Keep R1 ints in memory in canonical form, NReq=28251611.
 Requested convergence on RMS density matrix=1.00D-08 within 128 cycles.
 Requested convergence on MAX density matrix=1.00D-06.
 Requested convergence on             energy=1.00D-06.
 No special actions if energy rises.
 Integral accuracy reduced to 1.0D-05 until final iterations.
 Initial convergence to 1.0D-05 achieved.  Increase integral accuracy.
 SCF Done:  E(RB3LYP) =  -918.752873580     A.U. after   13 cycles
            NFock= 13  Conv=0.73D-08     -V/T= 2.0010
 Calling FoFJK, ICntrl=      2127 FMM=F ISym2X=0 I1Cent= 0 IOpClX= 0 NMat=1 NMatS=1 NMatT=0.
 ***** Axes restored to original set *****
 -------------------------------------------------------------------
 Center     Atomic                   Forces (Hartrees/Bohr)
 Number     Number              X              Y              Z
 -------------------------------------------------------------------
      1       15           0.005959704   -0.028521021   -0.010889579
      2        8          -0.036001828    0.006279099   -0.000402735
      3        8           0.008277342   -0.011018292   -0.017845488
      4        1           0.016030710   -0.003959547    0.002409863
      5        9          -0.016042060    0.051911626   -0.009866683
      6        8          -0.011046547    0.046764575   -0.012501624
      7        8          -0.023142879   -0.040611633    0.004661884
      8        9           0.011599787   -0.002080699    0.045402493
      9        8           0.017345265    0.001861948   -0.003549917
     10        1           0.003907681   -0.005228406    0.001047644
     11        1           0.023112825   -0.015397649    0.001534142
 -------------------------------------------------------------------
 Cartesian Forces:  Max     0.051911626 RMS     0.020704305

 GradGradGradGradGradGradGradGradGradGradGradGradGradGradGradGradGradGrad
 Berny optimization.
 Using GEDIIS/GDIIS optimizer.
 FormGI is forming the generalized inverse of G from B-inverse, IUseBI=4.
 Internal  Forces:  Max     0.046770084 RMS     0.017175789
 Search for a local minimum.
 Step number   2 out of a maximum of   58
 All quantities printed in internal units (Hartrees-Bohrs-Radians)
 Mixed Optimization -- RFO/linear search
 Update second derivatives using D2CorX and points    1    2
 DE= -4.65D-02 DEPred=-5.70D-02 R= 8.16D-01
 TightC=F SS=  1.41D+00  RLast= 3.11D-01 DXNew= 5.0454D-01 9.3239D-01
 Trust test= 8.16D-01 RLast= 3.11D-01 DXMaxT set to 5.05D-01
 ITU=  1  0
 Use linear search instead of GDIIS.
 Linear search step of   0.600 exceeds DXMaxT=   0.505 but not scaled.
 Quartic linear search produced a step of  2.00000.
 Iteration  1 RMS(Cart)=  0.19679398 RMS(Int)=  0.03560541
 Iteration  2 RMS(Cart)=  0.07199918 RMS(Int)=  0.00285789
 Iteration  3 RMS(Cart)=  0.00244129 RMS(Int)=  0.00036786
 Iteration  4 RMS(Cart)=  0.00000261 RMS(Int)=  0.00036785
 Iteration  5 RMS(Cart)=  0.00000000 RMS(Int)=  0.00036785
 Variable       Old X    -DE/DX   Delta X   Delta X   Delta X     New X
                                 (Linear)    (Quad)   (Total)
    R1        3.04352   0.03002   0.06865   0.00000   0.06865   3.11218
    R2        3.13069   0.04464   0.14292   0.00000   0.14293   3.27361
    R3        3.17395   0.04503   0.12448   0.00000   0.12476   3.29871
    R4        3.27439   0.04255   0.13974   0.00000   0.14006   3.41445
    R5        3.02794   0.04677   0.10311   0.00000   0.10311   3.13104
    R6        2.79838   0.02625   0.08442   0.00000   0.08406   2.88244
    R7        2.78610   0.02729   0.08333   0.00000   0.08298   2.86907
    R8        1.84276   0.01389   0.03172   0.00000   0.03172   1.87449
    R9        2.80787   0.04460   0.40983   0.00000   0.40983   3.21769
   R10        1.82305   0.00327   0.01783   0.00000   0.01783   1.84088
   R11        1.86723   0.01329   0.10618   0.00000   0.10618   1.97340
    A1        1.64344  -0.00931   0.00529   0.00000   0.00554   1.64897
    A2        2.31563   0.00424   0.00509   0.00000   0.00542   2.32105
    A3        1.61675   0.00872   0.02949   0.00000   0.02923   1.64598
    A4        1.93611  -0.00195   0.00956   0.00000   0.00938   1.94549
    A5        1.52669   0.00300  -0.01957   0.00000  -0.01984   1.50685
    A6        1.63087   0.00201   0.01514   0.00000   0.01476   1.64563
    A7        1.36152  -0.00490  -0.03297   0.00000  -0.03244   1.32908
    A8        2.02766  -0.00183  -0.01444   0.00000  -0.01456   2.01310
    A9        1.68807   0.00181   0.00762   0.00000   0.00695   1.69502
   A10        1.62753   0.00203  -0.01914   0.00000  -0.01998   1.60756
   A11        1.98045   0.00600   0.02369   0.00000   0.02369   2.00414
   A12        2.23985  -0.01489   0.08987   0.00000   0.08980   2.32965
   A13        1.66164   0.00100   0.02861   0.00000   0.02873   1.69037
   A14        1.62741   0.00187   0.02338   0.00000   0.02352   1.65093
   A15        1.95273   0.01018   0.08318   0.00000   0.08318   2.03591
   A16        2.11953   0.02021   0.26692   0.00000   0.26692   2.38645
   A17        3.26019  -0.00060   0.03478   0.00000   0.03476   3.29496
   A18        3.37749   0.00348   0.03986   0.00000   0.03960   3.41709
    D1        0.26382   0.00515   0.05263   0.00000   0.05259   0.31641
    D2        1.84157   0.00098   0.03128   0.00000   0.03102   1.87259
    D3       -3.11367   0.00167   0.01277   0.00000   0.01298  -3.10068
    D4       -1.39939   0.00684   0.03330   0.00000   0.03338  -1.36601
    D5       -0.99076   0.00955   0.03680   0.00000   0.03632  -0.95444
    D6        2.97782   0.00519   0.03282   0.00000   0.03195   3.00978
    D7        0.95175   0.00693   0.04838   0.00000   0.04793   0.99968
    D8        2.91967   0.00657   0.03583   0.00000   0.03734   2.95701
    D9        1.50548   0.00602   0.00887   0.00000   0.00906   1.51454
   D10        3.13443  -0.00385  -0.00185   0.00000  -0.00178   3.13265
   D11        0.06700  -0.00007   0.00083   0.00000   0.00109   0.06809
   D12       -1.53268  -0.00010   0.00563   0.00000   0.00553  -1.52715
   D13       -2.39107  -0.00278  -0.00339   0.00000  -0.00338  -2.39444
   D14       -0.06713   0.00010  -0.00077   0.00000  -0.00101  -0.06814
   D15        1.94714  -0.00224  -0.01783   0.00000  -0.01821   1.92893
   D16       -0.07717  -0.00009  -0.00135   0.00000  -0.00158  -0.07875
   D17        0.07461   0.00018   0.00095   0.00000   0.00117   0.07578
   D18        0.50751   0.00798   0.11367   0.00000   0.11367   0.62118
   D19        2.94949   0.00217   0.04693   0.00000   0.04693   2.99642
         Item               Value     Threshold  Converged?
 Maximum Force            0.046770     0.000450     NO 
 RMS     Force            0.017176     0.000300     NO 
 Maximum Displacement     0.924569     0.001800     NO 
 RMS     Displacement     0.263062     0.001200     NO 
 Predicted change in Energy=-2.129156D-02
 GradGradGradGradGradGradGradGradGradGradGradGradGradGradGradGradGradGrad

                          Input orientation:                          
 ---------------------------------------------------------------------
 Center     Atomic      Atomic             Coordinates (Angstroms)
 Number     Number       Type             X           Y           Z
 ---------------------------------------------------------------------
      1         15           0        0.087638    0.112184    0.020694
      2          8           0       -2.304603    0.612779   -0.167895
      3          8           0        0.785262   -1.033017   -0.935387
      4          1           0        1.752617   -0.898178   -1.108530
      5          9           0        1.353707    1.271593   -0.211203
      6          8           0       -1.019052    1.422086   -0.305672
      7          8           0       -1.535199   -0.682237    0.021909
      8          9           0        0.439430   -0.137078    1.620492
      9          8           0        3.803518    0.518737   -0.106251
     10          1           0        4.716920    0.843318   -0.009729
     11          1           0        3.041418    1.223287    0.009217
 ---------------------------------------------------------------------
                    Distance matrix (angstroms):
                    1          2          3          4          5
     1  P    0.000000
     2  O    2.451322   0.000000
     3  O    1.646892   3.583986   0.000000
     4  H    2.251251   4.430443   0.991935   0.000000
     5  F    1.732321   3.717411   2.481693   2.381646   0.000000
     6  O    1.745601   1.525320   3.111209   3.702750   2.379403
     7  O    1.806850   1.518247   2.534562   3.483427   3.495364
     8  F    1.656877   3.360109   2.730352   3.122706   2.485028
     9  O    3.740209   6.109157   3.493605   2.686709   2.565031
    10  H    4.686762   7.027087   4.453696   3.609330   3.396354
    11  H    3.155867   5.383682   3.327675   2.722311   1.702729
                    6          7          8          9         10
     6  O    0.000000
     7  O    2.191322   0.000000
     8  F    2.875459   2.598427   0.000000
     9  O    4.910498   5.473634   3.837815   0.000000
    10  H    5.772689   6.435629   4.681423   0.974152   0.000000
    11  H    4.077511   4.957480   3.349200   1.044280   1.718151
                   11
    11  H    0.000000
 Stoichiometry    F2H3O5P
 Framework group  C1[X(F2H3O5P)]
 Deg. of freedom    27
 Full point group                 C1      NOp   1
 Largest Abelian subgroup         C1      NOp   1
 Largest concise Abelian subgroup C1      NOp   1
                         Standard orientation:                         
 ---------------------------------------------------------------------
 Center     Atomic      Atomic             Coordinates (Angstroms)
 Number     Number       Type             X           Y           Z
 ---------------------------------------------------------------------
      1         15           0       -0.246066   -0.136246    0.014852
      2          8           0       -2.608150    0.490782   -0.175873
      3          8           0        0.401823   -1.284186   -0.972431
      4          1           0        1.376324   -1.193103   -1.133641
      5          9           0        1.078974    0.964296   -0.169563
      6          8           0       -1.282189    1.237853   -0.277418
      7          8           0       -1.906843   -0.846989   -0.022209
      8          9           0        0.077735   -0.454060    1.608398
      9          8           0        3.486613    0.085216   -0.070161
     10          1           0        4.414279    0.359811    0.043878
     11          1           0        2.759967    0.823449    0.062195
 ---------------------------------------------------------------------
 Rotational constants (GHZ):      3.1859716      0.9891727      0.9460309
 Standard basis: 6-311G (5D, 7F)
 There are   121 symmetry adapted cartesian basis functions of A   symmetry.
 There are   121 symmetry adapted basis functions of A   symmetry.
   121 basis functions,   237 primitive gaussians,   121 cartesian basis functions
    38 alpha electrons       38 beta electrons
       nuclear repulsion energy       550.0560405103 Hartrees.



 Warning!  P  atom    1 may be hypervalent but has no d functions.



 NAtoms=   11 NActive=   11 NUniq=   11 SFac= 1.00D+00 NAtFMM=   60 NAOKFM=F Big=F
 Integral buffers will be    131072 words long.
 Raffenetti 2 integral format.
 Two-electron integral symmetry is turned on.
 One-electron integrals computed using PRISM.
 NBasis=   121 RedAO= T EigKep=  1.58D-02  NBF=   121
 NBsUse=   121 1.00D-06 EigRej= -1.00D+00 NBFU=   121
 Initial guess from the checkpoint file:  "HF2PO4-h2o.chk"
 B after Tr=     0.000000    0.000000    0.000000
         Rot=    0.999607   -0.023558    0.004651    0.014466 Ang=  -3.21 deg.
 ExpMin= 6.85D-02 ExpMax= 7.75D+04 ExpMxC= 2.65D+03 IAcc=2 IRadAn=         4 AccDes= 0.00D+00
 Harris functional with IExCor=  402 and IRadAn=       4 diagonalized for initial guess.
 HarFok:  IExCor=  402 AccDes= 0.00D+00 IRadAn=         4 IDoV= 1 UseB2=F ITyADJ=14
 ICtDFT=  3500011 ScaDFX=  1.000000  1.000000  1.000000  1.000000
 FoFCou: FMM=F IPFlag=           0 FMFlag=      100000 FMFlg1=           0
         NFxFlg=           0 DoJE=T BraDBF=F KetDBF=T FulRan=T
         wScrn=  0.000000 ICntrl=     500 IOpCl=  0 I1Cent=   200000004 NGrid=           0
         NMat0=    1 NMatS0=      1 NMatT0=    0 NMatD0=    1 NMtDS0=    0 NMtDT0=    0
 Petite list used in FoFCou.
 Keep R1 ints in memory in canonical form, NReq=28251611.
 Requested convergence on RMS density matrix=1.00D-08 within 128 cycles.
 Requested convergence on MAX density matrix=1.00D-06.
 Requested convergence on             energy=1.00D-06.
 No special actions if energy rises.
 Integral accuracy reduced to 1.0D-05 until final iterations.
 Initial convergence to 1.0D-05 achieved.  Increase integral accuracy.
 SCF Done:  E(RB3LYP) =  -918.771953934     A.U. after   15 cycles
            NFock= 15  Conv=0.77D-08     -V/T= 2.0020
 Calling FoFJK, ICntrl=      2127 FMM=F ISym2X=0 I1Cent= 0 IOpClX= 0 NMat=1 NMatS=1 NMatT=0.
 ***** Axes restored to original set *****
 -------------------------------------------------------------------
 Center     Atomic                   Forces (Hartrees/Bohr)
 Number     Number              X              Y              Z
 -------------------------------------------------------------------
      1       15          -0.011740618   -0.002076784   -0.002832349
      2        8           0.009996426   -0.001715354    0.000890946
      3        8           0.014516129    0.001290420   -0.004044957
      4        1          -0.004410546   -0.003381017    0.001128488
      5        9          -0.002949838    0.005194380    0.001628882
      6        8          -0.004970596    0.022400058   -0.005850734
      7        8          -0.008443461   -0.017497625    0.000607763
      8        9           0.005272443   -0.000299697    0.010546435
      9        8          -0.036771466    0.021790789    0.001752096
     10        1          -0.010718913    0.004045367    0.000573510
     11        1           0.050220439   -0.029750537   -0.004400081
 -------------------------------------------------------------------
 Cartesian Forces:  Max     0.050220439 RMS     0.014584042

 GradGradGradGradGradGradGradGradGradGradGradGradGradGradGradGradGradGrad
 Berny optimization.
 Using GEDIIS/GDIIS optimizer.
 FormGI is forming the generalized inverse of G from B-inverse, IUseBI=4.
 Internal  Forces:  Max     0.052349022 RMS     0.010039540
 Search for a local minimum.
 Step number   3 out of a maximum of   58
 All quantities printed in internal units (Hartrees-Bohrs-Radians)
 Mixed Optimization -- RFO/linear search
 Update second derivatives using D2CorX and points    2    3
 ITU=  0  1  0
 Use linear search instead of GDIIS.
     Eigenvalues ---    0.00235   0.01560   0.01661   0.02315   0.03536
     Eigenvalues ---    0.06766   0.09294   0.11587   0.12021   0.14253
     Eigenvalues ---    0.15928   0.15999   0.16172   0.16755   0.17003
     Eigenvalues ---    0.21616   0.24778   0.33716   0.35877   0.36280
     Eigenvalues ---    0.40265   0.46272   0.52272   0.54118   0.55408
     Eigenvalues ---    0.55484   0.58825
 RFO step:  Lambda=-1.34163700D-02 EMin= 2.34820682D-03
 Quartic linear search produced a step of -0.20098.
 Iteration  1 RMS(Cart)=  0.16888538 RMS(Int)=  0.00871716
 Iteration  2 RMS(Cart)=  0.01126616 RMS(Int)=  0.00156586
 Iteration  3 RMS(Cart)=  0.00008367 RMS(Int)=  0.00156522
 Iteration  4 RMS(Cart)=  0.00000026 RMS(Int)=  0.00156522
 Variable       Old X    -DE/DX   Delta X   Delta X   Delta X     New X
                                 (Linear)    (Quad)   (Total)
    R1        3.11218   0.00743  -0.01380   0.02236   0.00856   3.12074
    R2        3.27361   0.00078  -0.02873   0.01960  -0.00920   3.26442
    R3        3.29871   0.01223  -0.02507   0.04017   0.01508   3.31378
    R4        3.41445   0.00715  -0.02815   0.03351   0.00519   3.41964
    R5        3.13104   0.01135  -0.02072   0.03250   0.01178   3.14282
    R6        2.88244   0.00099  -0.01689   0.01862   0.00188   2.88432
    R7        2.86907   0.00237  -0.01668   0.02087   0.00435   2.87343
    R8        1.87449  -0.00496  -0.00638  -0.00192  -0.00830   1.86619
    R9        3.21769   0.00255  -0.08237   0.04305  -0.03931   3.17838
   R10        1.84088  -0.00865  -0.00358  -0.01088  -0.01446   1.82642
   R11        1.97340  -0.05235  -0.02134  -0.06822  -0.08956   1.88384
    A1        1.64897  -0.00718  -0.00111  -0.05640  -0.05788   1.59110
    A2        2.32105   0.00211  -0.00109   0.01220   0.00978   2.33083
    A3        1.64598  -0.00127  -0.00587   0.00456  -0.00155   1.64443
    A4        1.94549  -0.00240  -0.00188  -0.01230  -0.01477   1.93072
    A5        1.50685   0.00220   0.00399   0.01589   0.02012   1.52696
    A6        1.64563  -0.00140  -0.00297  -0.00668  -0.00962   1.63601
    A7        1.32908   0.00717   0.00652   0.03051   0.03678   1.36586
    A8        2.01310   0.00089   0.00293   0.00461   0.00804   2.02114
    A9        1.69502   0.00073  -0.00140   0.01582   0.01451   1.70953
   A10        1.60756   0.01422   0.00401   0.04884   0.05307   1.66063
   A11        2.00414   0.00394  -0.00476   0.02385   0.01909   2.02323
   A12        2.32965  -0.02021  -0.01805  -0.11472  -0.13197   2.19767
   A13        1.69037  -0.01168  -0.00577  -0.04216  -0.04787   1.64250
   A14        1.65093  -0.00983  -0.00473  -0.03875  -0.04351   1.60742
   A15        2.03591  -0.01388  -0.01672  -0.05619  -0.07290   1.96300
   A16        2.38645  -0.01327  -0.05365  -0.03164  -0.08529   2.30117
   A17        3.29496  -0.00845  -0.00699  -0.05185  -0.05943   3.23553
   A18        3.41709  -0.00479  -0.00796  -0.01428  -0.02129   3.39580
    D1        0.31641  -0.00074  -0.01057   0.01509   0.00528   0.32169
    D2        1.87259  -0.00427  -0.00623  -0.01489  -0.02129   1.85130
    D3       -3.10068   0.00405  -0.00261   0.02937   0.02657  -3.07411
    D4       -1.36601   0.00398  -0.00671   0.04665   0.03954  -1.32647
    D5       -0.95444   0.00504  -0.00730   0.11211   0.10729  -0.84715
    D6        3.00978   0.00271  -0.00642   0.09829   0.09555   3.10532
    D7        0.99968   0.00165  -0.00963   0.09259   0.08619   1.08587
    D8        2.95701   0.00393  -0.00750   0.12098   0.10500   3.06201
    D9        1.51454   0.00500  -0.00182   0.04114   0.03892   1.55346
   D10        3.13265  -0.00281   0.00036  -0.02144  -0.02205   3.11060
   D11        0.06809   0.00061  -0.00022   0.00955   0.00861   0.07670
   D12       -1.52715  -0.00336  -0.00111  -0.02154  -0.02337  -1.55052
   D13       -2.39444  -0.00223   0.00068  -0.01715  -0.01504  -2.40948
   D14       -0.06814  -0.00062   0.00020  -0.00963  -0.00871  -0.07685
   D15        1.92893   0.00032   0.00366  -0.00750  -0.00168   1.92725
   D16       -0.07875  -0.00099   0.00032  -0.01198  -0.01102  -0.08977
   D17        0.07578   0.00112  -0.00023   0.01186   0.01104   0.08682
   D18        0.62118   0.00041  -0.02285   0.02386   0.00102   0.62220
   D19        2.99642   0.00021  -0.00943  -0.00093  -0.01036   2.98606
         Item               Value     Threshold  Converged?
 Maximum Force            0.052349     0.000450     NO 
 RMS     Force            0.010040     0.000300     NO 
 Maximum Displacement     0.468712     0.001800     NO 
 RMS     Displacement     0.170970     0.001200     NO 
 Predicted change in Energy=-7.874168D-03
 GradGradGradGradGradGradGradGradGradGradGradGradGradGradGradGradGradGrad

                          Input orientation:                          
 ---------------------------------------------------------------------
 Center     Atomic      Atomic             Coordinates (Angstroms)
 Number     Number       Type             X           Y           Z
 ---------------------------------------------------------------------
      1         15           0        0.113697    0.186702    0.043143
      2          8           0       -2.260534    0.487842   -0.202918
      3          8           0        0.953405   -0.887633   -0.888467
      4          1           0        1.911325   -0.687526   -1.021089
      5          9           0        1.335620    1.387550   -0.178140
      6          8           0       -1.067003    1.432464   -0.316112
      7          8           0       -1.423653   -0.766526   -0.007294
      8          9           0        0.467558   -0.032577    1.653307
      9          8           0        3.581430    0.379495   -0.180133
     10          1           0        4.519173    0.595286   -0.089601
     11          1           0        2.990636    1.158394    0.014951
 ---------------------------------------------------------------------
                    Distance matrix (angstroms):
                    1          2          3          4          5
     1  P    0.000000
     2  O    2.405869   0.000000
     3  O    1.651423   3.562486   0.000000
     4  H    2.264582   4.410816   0.987544   0.000000
     5  F    1.727454   3.707076   2.413941   2.312561   0.000000
     6  O    1.753579   1.526316   3.129294   3.723142   2.407000
     7  O    1.809595   1.520551   2.538018   3.486560   3.504685
     8  F    1.663108   3.340493   2.725395   3.108989   2.474771
     9  O    3.480258   5.843013   3.002311   2.152903   2.461675
    10  H    4.426372   6.781505   3.943594   3.051908   3.281848
    11  H    3.036734   5.298291   3.025343   2.376071   1.681926
                    6          7          8          9         10
     6  O    0.000000
     7  O    2.249028   0.000000
     8  F    2.894794   2.621632   0.000000
     9  O    4.768140   5.137519   3.636964   0.000000
    10  H    5.653099   6.097416   4.455055   0.966500   0.000000
    11  H    4.080337   4.815782   3.235513   0.996885   1.632313
                   11
    11  H    0.000000
 Stoichiometry    F2H3O5P
 Framework group  C1[X(F2H3O5P)]
 Deg. of freedom    27
 Full point group                 C1      NOp   1
 Largest Abelian subgroup         C1      NOp   1
 Largest concise Abelian subgroup C1      NOp   1
                         Standard orientation:                         
 ---------------------------------------------------------------------
 Center     Atomic      Atomic             Coordinates (Angstroms)
 Number     Number       Type             X           Y           Z
 ---------------------------------------------------------------------
      1         15           0       -0.227324   -0.085938    0.035120
      2          8           0       -2.584839    0.312556   -0.232334
      3          8           0        0.587550   -1.151309   -0.928293
      4          1           0        1.554094   -0.981431   -1.038646
      5          9           0        1.040759    1.077048   -0.118270
      6          8           0       -1.356148    1.216309   -0.288835
      7          8           0       -1.797270   -0.978852   -0.077160
      8          9           0        0.092665   -0.384207    1.639668
      9          8           0        3.248237   -0.012330   -0.129958
     10          1           0        4.191635    0.164771   -0.017009
     11          1           0        2.683080    0.779170    0.088911
 ---------------------------------------------------------------------
 Rotational constants (GHZ):      3.2147107      1.0523913      1.0103036
 Standard basis: 6-311G (5D, 7F)
 There are   121 symmetry adapted cartesian basis functions of A   symmetry.
 There are   121 symmetry adapted basis functions of A   symmetry.
   121 basis functions,   237 primitive gaussians,   121 cartesian basis functions
    38 alpha electrons       38 beta electrons
       nuclear repulsion energy       556.2834275994 Hartrees.



 Warning!  P  atom    1 may be hypervalent but has no d functions.



 NAtoms=   11 NActive=   11 NUniq=   11 SFac= 1.00D+00 NAtFMM=   60 NAOKFM=F Big=F
 Integral buffers will be    131072 words long.
 Raffenetti 2 integral format.
 Two-electron integral symmetry is turned on.
 One-electron integrals computed using PRISM.
 NBasis=   121 RedAO= T EigKep=  1.53D-02  NBF=   121
 NBsUse=   121 1.00D-06 EigRej= -1.00D+00 NBFU=   121
 Initial guess from the checkpoint file:  "HF2PO4-h2o.chk"
 B after Tr=     0.000000    0.000000    0.000000
         Rot=    0.999877    0.001516    0.004091   -0.015033 Ang=   1.79 deg.
 ExpMin= 6.85D-02 ExpMax= 7.75D+04 ExpMxC= 2.65D+03 IAcc=2 IRadAn=         4 AccDes= 0.00D+00
 Harris functional with IExCor=  402 and IRadAn=       4 diagonalized for initial guess.
 HarFok:  IExCor=  402 AccDes= 0.00D+00 IRadAn=         4 IDoV= 1 UseB2=F ITyADJ=14
 ICtDFT=  3500011 ScaDFX=  1.000000  1.000000  1.000000  1.000000
 FoFCou: FMM=F IPFlag=           0 FMFlag=      100000 FMFlg1=           0
         NFxFlg=           0 DoJE=T BraDBF=F KetDBF=T FulRan=T
         wScrn=  0.000000 ICntrl=     500 IOpCl=  0 I1Cent=   200000004 NGrid=           0
         NMat0=    1 NMatS0=      1 NMatT0=    0 NMatD0=    1 NMtDS0=    0 NMtDT0=    0
 Petite list used in FoFCou.
 Keep R1 ints in memory in canonical form, NReq=28251611.
 Requested convergence on RMS density matrix=1.00D-08 within 128 cycles.
 Requested convergence on MAX density matrix=1.00D-06.
 Requested convergence on             energy=1.00D-06.
 No special actions if energy rises.
 Integral accuracy reduced to 1.0D-05 until final iterations.
 Initial convergence to 1.0D-05 achieved.  Increase integral accuracy.
 SCF Done:  E(RB3LYP) =  -918.784088446     A.U. after   15 cycles
            NFock= 15  Conv=0.28D-08     -V/T= 2.0019
 Calling FoFJK, ICntrl=      2127 FMM=F ISym2X=0 I1Cent= 0 IOpClX= 0 NMat=1 NMatS=1 NMatT=0.
 ***** Axes restored to original set *****
 -------------------------------------------------------------------
 Center     Atomic                   Forces (Hartrees/Bohr)
 Number     Number              X              Y              Z
 -------------------------------------------------------------------
      1       15           0.009170913   -0.014192059   -0.007938949
      2        8          -0.007999536    0.001216837    0.000213136
      3        8          -0.001715791   -0.002600422   -0.002304606
      4        1           0.005815312    0.000191205    0.003363259
      5        9          -0.007326237    0.017890984    0.004490727
      6        8          -0.002884442    0.004623295   -0.002354352
      7        8          -0.001132717   -0.001797646   -0.000929441
      8        9           0.001322166    0.001418287    0.009393531
      9        8          -0.014745793    0.010763276    0.000671958
     10        1           0.000090715   -0.002144703   -0.000568303
     11        1           0.019405410   -0.015369054   -0.004036961
 -------------------------------------------------------------------
 Cartesian Forces:  Max     0.019405410 RMS     0.007723508

 GradGradGradGradGradGradGradGradGradGradGradGradGradGradGradGradGradGrad
 Berny optimization.
 Using GEDIIS/GDIIS optimizer.
 FormGI is forming the generalized inverse of G from B-inverse, IUseBI=4.
 Internal  Forces:  Max     0.029152599 RMS     0.006344244
 Search for a local minimum.
 Step number   4 out of a maximum of   58
 All quantities printed in internal units (Hartrees-Bohrs-Radians)
 Mixed Optimization -- RFO/linear search
 Update second derivatives using D2CorX and points    3    4
 DE= -1.21D-02 DEPred=-7.87D-03 R= 1.54D+00
 TightC=F SS=  1.41D+00  RLast= 3.20D-01 DXNew= 8.4853D-01 9.6135D-01
 Trust test= 1.54D+00 RLast= 3.20D-01 DXMaxT set to 8.49D-01
 ITU=  1  0  1  0
 Use linear search instead of GDIIS.
     Eigenvalues ---    0.00235   0.01210   0.01564   0.01846   0.03483
     Eigenvalues ---    0.06382   0.07257   0.09480   0.12182   0.12809
     Eigenvalues ---    0.14956   0.16039   0.16147   0.16756   0.19439
     Eigenvalues ---    0.21169   0.29660   0.33683   0.35767   0.36409
     Eigenvalues ---    0.39587   0.46336   0.52228   0.53380   0.55158
     Eigenvalues ---    0.55450   0.75349
 RFO step:  Lambda=-1.64999504D-02 EMin= 2.34834931D-03
 Quartic linear search produced a step of  0.86070.
 Iteration  1 RMS(Cart)=  0.29919081 RMS(Int)=  0.04640311
 Iteration  2 RMS(Cart)=  0.17779120 RMS(Int)=  0.00961438
 Iteration  3 RMS(Cart)=  0.01151750 RMS(Int)=  0.00434105
 Iteration  4 RMS(Cart)=  0.00005552 RMS(Int)=  0.00434089
 Iteration  5 RMS(Cart)=  0.00000020 RMS(Int)=  0.00434089
 Variable       Old X    -DE/DX   Delta X   Delta X   Delta X     New X
                                 (Linear)    (Quad)   (Total)
    R1        3.12074   0.00306   0.00737   0.00470   0.01207   3.13281
    R2        3.26442   0.00589  -0.00792  -0.00011  -0.00816   3.25625
    R3        3.31378   0.00770   0.01298   0.02028   0.03348   3.34727
    R4        3.41964   0.00426   0.00446   0.00509   0.00915   3.42879
    R5        3.14282   0.00919   0.01013   0.01819   0.02833   3.17114
    R6        2.88432   0.00364   0.00162   0.00477   0.00663   2.89095
    R7        2.87343   0.00394   0.00375   0.00571   0.00959   2.88301
    R8        1.86619   0.00524  -0.00714   0.00846   0.00132   1.86751
    R9        3.17838   0.00514  -0.03384  -0.01666  -0.05050   3.12788
   R10        1.82642  -0.00044  -0.01245  -0.00828  -0.02073   1.80569
   R11        1.88384  -0.01546  -0.07709  -0.08563  -0.16271   1.72113
    A1        1.59110  -0.00217  -0.04981  -0.02588  -0.07478   1.51631
    A2        2.33083   0.00251   0.00842   0.02700   0.03215   2.36298
    A3        1.64443   0.00310  -0.00134   0.01352   0.01198   1.65641
    A4        1.93072  -0.00138  -0.01271  -0.01612  -0.03005   1.90067
    A5        1.52696   0.00130   0.01731   0.00848   0.02653   1.55349
    A6        1.63601   0.00016  -0.00828   0.00137  -0.00814   1.62788
    A7        1.36586  -0.00282   0.03165  -0.00583   0.02523   1.39109
    A8        2.02114  -0.00110   0.00692  -0.01025  -0.00215   2.01899
    A9        1.70953   0.00120   0.01249   0.01685   0.02861   1.73814
   A10        1.66063  -0.00281   0.04568  -0.00370   0.04184   1.70247
   A11        2.02323  -0.00281   0.01643  -0.02358  -0.00715   2.01609
   A12        2.19767  -0.02915  -0.11359  -0.29808  -0.40907   1.78861
   A13        1.64250   0.00224  -0.04120   0.00022  -0.04080   1.60170
   A14        1.60742   0.00336  -0.03745   0.00543  -0.03199   1.57543
   A15        1.96300   0.00395  -0.06275   0.00932  -0.05343   1.90957
   A16        2.30117  -0.01723  -0.07341  -0.15832  -0.23172   2.06944
   A17        3.23553   0.00093  -0.05115  -0.01236  -0.06280   3.17272
   A18        3.39580   0.00160  -0.01833   0.01208  -0.00490   3.39090
    D1        0.32169   0.00195   0.00455   0.04290   0.04918   0.37086
    D2        1.85130   0.00163  -0.01832   0.02949   0.01032   1.86162
    D3       -3.07411   0.00035   0.02287   0.03083   0.05408  -3.02003
    D4       -1.32647   0.00267   0.03403   0.05205   0.08481  -1.24166
    D5       -0.84715   0.00801   0.09235   0.18743   0.28642  -0.56073
    D6        3.10532   0.00543   0.08224   0.15945   0.25114  -2.92672
    D7        1.08587   0.00646   0.07418   0.16931   0.25184   1.33771
    D8        3.06201   0.00338   0.09037   0.13494   0.20124  -3.01994
    D9        1.55346   0.00111   0.03350   0.02729   0.06027   1.61373
   D10        3.11060  -0.00080  -0.01898  -0.00193  -0.02131   3.08929
   D11        0.07670   0.00023   0.00741   0.02194   0.02667   0.10337
   D12       -1.55052   0.00002  -0.02011   0.00388  -0.01756  -1.56808
   D13       -2.40948  -0.00240  -0.01294  -0.04730  -0.05529  -2.46477
   D14       -0.07685  -0.00022  -0.00750  -0.02197  -0.02676  -0.10361
   D15        1.92725  -0.00170  -0.00145  -0.03556  -0.03104   1.89621
   D16       -0.08977  -0.00019  -0.00948  -0.02551  -0.03234  -0.12211
   D17        0.08682   0.00027   0.00950   0.02509   0.03232   0.11913
   D18        0.62220   0.00044   0.00087  -0.01247  -0.01159   0.61060
   D19        2.98606   0.00004  -0.00892  -0.00414  -0.01306   2.97301
         Item               Value     Threshold  Converged?
 Maximum Force            0.029153     0.000450     NO 
 RMS     Force            0.006344     0.000300     NO 
 Maximum Displacement     1.281543     0.001800     NO 
 RMS     Displacement     0.472183     0.001200     NO 
 Predicted change in Energy=-1.832241D-02
 GradGradGradGradGradGradGradGradGradGradGradGradGradGradGradGradGradGrad

                          Input orientation:                          
 ---------------------------------------------------------------------
 Center     Atomic      Atomic             Coordinates (Angstroms)
 Number     Number       Type             X           Y           Z
 ---------------------------------------------------------------------
      1         15           0        0.251749    0.333190    0.099887
      2          8           0       -2.080529    0.223795   -0.340395
      3          8           0        1.401087   -0.530482   -0.725603
      4          1           0        2.316798   -0.160322   -0.692763
      5          9           0        1.315759    1.683293   -0.019673
      6          8           0       -1.094096    1.393076   -0.350486
      7          8           0       -1.063380   -0.894582   -0.135040
      8          9           0        0.513645    0.150494    1.747323
      9          8           0        2.911910    0.154066   -0.373085
     10          1           0        3.841009   -0.066804   -0.405141
     11          1           0        2.807705    0.967749    0.022622
 ---------------------------------------------------------------------
                    Distance matrix (angstroms):
                    1          2          3          4          5
     1  P    0.000000
     2  O    2.375991   0.000000
     3  O    1.657812   3.583151   0.000000
     4  H    2.266335   4.428113   0.988242   0.000000
     5  F    1.723134   3.710494   2.325170   2.203190   0.000000
     6  O    1.771297   1.529826   3.172811   3.763562   2.449707
     7  O    1.814436   1.525624   2.560260   3.503683   3.509851
     8  F    1.678097   3.330717   2.714156   3.049916   2.472879
     9  O    2.707812   4.993033   1.695719   0.745113   2.238556
    10  H    3.646620   5.929018   2.504179   1.553928   3.096500
    11  H    2.634682   4.957830   2.187032   1.423134   1.655203
                    6          7          8          9         10
     6  O    0.000000
     7  O    2.297985   0.000000
     8  F    2.920554   2.668798   0.000000
     9  O    4.193298   4.118163   3.201221   0.000000
    10  H    5.146796   4.981085   3.968838   0.955529   0.000000
    11  H    3.942609   4.298655   2.984160   0.910781   1.523483
                   11
    11  H    0.000000
 Stoichiometry    F2H3O5P
 Framework group  C1[X(F2H3O5P)]
 Deg. of freedom    27
 Full point group                 C1      NOp   1
 Largest Abelian subgroup         C1      NOp   1
 Largest concise Abelian subgroup C1      NOp   1
                         Standard orientation:                         
 ---------------------------------------------------------------------
 Center     Atomic      Atomic             Coordinates (Angstroms)
 Number     Number       Type             X           Y           Z
 ---------------------------------------------------------------------
      1         15           0       -0.141611    0.023491    0.087509
      2          8           0       -2.469310   -0.103730   -0.371802
      3          8           0        0.995660   -0.998034   -0.553928
      4          1           0        1.920565   -0.650224   -0.568093
      5          9           0        0.960533    1.306044   -0.243437
      6          8           0       -1.451251    1.021676   -0.565150
      7          8           0       -1.486220   -1.193990    0.043404
      8          9           0        0.091043    0.123000    1.746419
      9          8           0        2.519302   -0.299752   -0.296290
     10          1           0        3.442388   -0.545416   -0.271844
     11          1           0        2.431589    0.572530   -0.049404
 ---------------------------------------------------------------------
 Rotational constants (GHZ):      3.0806197      1.2733488      1.2196534
 Standard basis: 6-311G (5D, 7F)
 There are   121 symmetry adapted cartesian basis functions of A   symmetry.
 There are   121 symmetry adapted basis functions of A   symmetry.
   121 basis functions,   237 primitive gaussians,   121 cartesian basis functions
    38 alpha electrons       38 beta electrons
       nuclear repulsion energy       582.9065849196 Hartrees.



 Warning!  P  atom    1 may be hypervalent but has no d functions.



 NAtoms=   11 NActive=   11 NUniq=   11 SFac= 1.00D+00 NAtFMM=   60 NAOKFM=F Big=F
 Integral buffers will be    131072 words long.
 Raffenetti 2 integral format.
 Two-electron integral symmetry is turned on.
 One-electron integrals computed using PRISM.
 NBasis=   121 RedAO= T EigKep=  6.60D-03  NBF=   121
 NBsUse=   121 1.00D-06 EigRej= -1.00D+00 NBFU=   121
 Initial guess from the checkpoint file:  "HF2PO4-h2o.chk"
 B after Tr=     0.000000    0.000000    0.000000
         Rot=    0.993083    0.112978    0.004817   -0.031617 Ang=  13.49 deg.
 ExpMin= 6.85D-02 ExpMax= 7.75D+04 ExpMxC= 2.65D+03 IAcc=2 IRadAn=         4 AccDes= 0.00D+00
 Harris functional with IExCor=  402 and IRadAn=       4 diagonalized for initial guess.
 HarFok:  IExCor=  402 AccDes= 0.00D+00 IRadAn=         4 IDoV= 1 UseB2=F ITyADJ=14
 ICtDFT=  3500011 ScaDFX=  1.000000  1.000000  1.000000  1.000000
 FoFCou: FMM=F IPFlag=           0 FMFlag=      100000 FMFlg1=           0
         NFxFlg=           0 DoJE=T BraDBF=F KetDBF=T FulRan=T
         wScrn=  0.000000 ICntrl=     500 IOpCl=  0 I1Cent=   200000004 NGrid=           0
         NMat0=    1 NMatS0=      1 NMatT0=    0 NMatD0=    1 NMtDS0=    0 NMtDT0=    0
 Petite list used in FoFCou.
 Keep R1 ints in memory in canonical form, NReq=28251611.
 Requested convergence on RMS density matrix=1.00D-08 within 128 cycles.
 Requested convergence on MAX density matrix=1.00D-06.
 Requested convergence on             energy=1.00D-06.
 No special actions if energy rises.
 Integral accuracy reduced to 1.0D-05 until final iterations.
 Initial convergence to 1.0D-05 achieved.  Increase integral accuracy.
 SCF Done:  E(RB3LYP) =  -918.476589557     A.U. after   18 cycles
            NFock= 18  Conv=0.59D-08     -V/T= 1.9994
 Calling FoFJK, ICntrl=      2127 FMM=F ISym2X=0 I1Cent= 0 IOpClX= 0 NMat=1 NMatS=1 NMatT=0.
 ***** Axes restored to original set *****
 -------------------------------------------------------------------
 Center     Atomic                   Forces (Hartrees/Bohr)
 Number     Number              X              Y              Z
 -------------------------------------------------------------------
      1       15           0.020708259   -0.063213115   -0.042983518
      2        8          -0.022401616   -0.002431880   -0.001508919
      3        8          -0.413020570   -0.133385285   -0.038824269
      4        1          -0.320301771   -0.205905003   -0.241171920
      5        9          -0.005836436    0.049796535    0.014260380
      6        8           0.005068881   -0.005822943    0.002914672
      7        8          -0.010992182    0.010150862    0.003588525
      8        9          -0.002070545    0.004986049    0.010694862
      9        8           0.747584688    0.291625725    0.271552635
     10        1           0.017071424   -0.011905974   -0.006004708
     11        1          -0.015810131    0.066105029    0.027482259
 -------------------------------------------------------------------
 Cartesian Forces:  Max     0.747584688 RMS     0.184760318

 GradGradGradGradGradGradGradGradGradGradGradGradGradGradGradGradGradGrad
 Berny optimization.
 Using GEDIIS/GDIIS optimizer.
 FormGI is forming the generalized inverse of G from B-inverse, IUseBI=4.
 Internal  Forces:  Max     3.086442114 RMS     0.588491032
 Search for a local minimum.
 Step number   5 out of a maximum of   58
 All quantities printed in internal units (Hartrees-Bohrs-Radians)
 Mixed Optimization -- RFO/linear search
 Update second derivatives using D2CorX and points    3    5    4
 DE=  3.07D-01 DEPred=-1.83D-02 R=-1.68D+01
 Trust test=-1.68D+01 RLast= 7.40D-01 DXMaxT set to 4.24D-01
 ITU= -1  1  0  1  0
 Use linear search instead of GDIIS.
 Energy rises -- skip Quadratic/GDIIS search.
 Quartic linear search produced a step of -0.46098.
 Iteration  1 RMS(Cart)=  0.19937635 RMS(Int)=  0.01106868
 Iteration  2 RMS(Cart)=  0.02882743 RMS(Int)=  0.00072513
 Iteration  3 RMS(Cart)=  0.00052634 RMS(Int)=  0.00067267
 Iteration  4 RMS(Cart)=  0.00000019 RMS(Int)=  0.00067267
 Variable       Old X    -DE/DX   Delta X   Delta X   Delta X     New X
                                 (Linear)    (Quad)   (Total)
    R1        3.13281  -0.19222  -0.00557   0.00000  -0.00557   3.12725
    R2        3.25625   0.74693   0.00376   0.00000   0.00379   3.26004
    R3        3.34727  -0.02537  -0.01543   0.00000  -0.01547   3.33180
    R4        3.42879  -0.01957  -0.00422   0.00000  -0.00417   3.42462
    R5        3.17114   0.00963  -0.01306   0.00000  -0.01306   3.15809
    R6        2.89095   0.04342  -0.00306   0.00000  -0.00309   2.88786
    R7        2.88301   0.03599  -0.00442   0.00000  -0.00444   2.87857
    R8        1.86751  -0.38193  -0.00061   0.00000  -0.00061   1.86690
    R9        3.12788   0.53298   0.02328   0.00000   0.02328   3.15116
   R10        1.80569   0.01955   0.00956   0.00000   0.00956   1.81525
   R11        1.72113  -0.27778   0.07501   0.00000   0.07501   1.79613
    A1        1.51631   1.07392   0.03447   0.00000   0.03439   1.55070
    A2        2.36298  -0.30947  -0.01482   0.00000  -0.01431   2.34867
    A3        1.65641  -0.44497  -0.00552   0.00000  -0.00541   1.65100
    A4        1.90067   0.34636   0.01385   0.00000   0.01406   1.91473
    A5        1.55349  -0.55388  -0.01223   0.00000  -0.01243   1.54106
    A6        1.62788  -0.22910   0.00375   0.00000   0.00388   1.63176
    A7        1.39109   0.04608  -0.01163   0.00000  -0.01154   1.37955
    A8        2.01899  -0.02411   0.00099   0.00000   0.00079   2.01978
    A9        1.73814   0.01043  -0.01319   0.00000  -0.01316   1.72498
   A10        1.70247   0.01649  -0.01929   0.00000  -0.01925   1.68322
   A11        2.01609   0.35138   0.00330   0.00000   0.00330   2.01938
   A12        1.78861   3.08644   0.18857   0.00000   0.18819   1.97680
   A13        1.60170  -0.03439   0.01881   0.00000   0.01880   1.62050
   A14        1.57543  -0.03306   0.01475   0.00000   0.01477   1.59020
   A15        1.90957   0.01667   0.02463   0.00000   0.02463   1.93420
   A16        2.06944   1.37085   0.10682   0.00000   0.10682   2.17626
   A17        3.17272   0.62895   0.02895   0.00000   0.02898   3.20171
   A18        3.39090   0.01204   0.00226   0.00000   0.00190   3.39280
    D1        0.37086  -0.11865  -0.02267   0.00000  -0.02305   0.34782
    D2        1.86162   0.22797  -0.00476   0.00000  -0.00458   1.85704
    D3       -3.02003  -0.13069  -0.02493   0.00000  -0.02495  -3.04498
    D4       -1.24166  -0.22793  -0.03910   0.00000  -0.03888  -1.28054
    D5       -0.56073  -0.78131  -0.13203   0.00000  -0.13311  -0.69384
    D6       -2.92672  -0.43703  -0.11577   0.00000  -0.11727  -3.04399
    D7        1.33771  -0.38048  -0.11610   0.00000  -0.11739   1.22032
    D8       -3.01994  -0.08769  -0.09277   0.00000  -0.08907  -3.10901
    D9        1.61373  -0.49977  -0.02778   0.00000  -0.02770   1.58603
   D10        3.08929   0.50473   0.00982   0.00000   0.00999   3.09928
   D11        0.10337   0.02041  -0.01229   0.00000  -0.01190   0.09148
   D12       -1.56808  -0.01591   0.00810   0.00000   0.00833  -1.55975
   D13       -2.46477   0.22081   0.02549   0.00000   0.02474  -2.44003
   D14       -0.10361  -0.02081   0.01234   0.00000   0.01193  -0.09168
   D15        1.89621  -0.04199   0.01431   0.00000   0.01341   1.90962
   D16       -0.12211  -0.02320   0.01491   0.00000   0.01452  -0.10758
   D17        0.11913   0.02252  -0.01490   0.00000  -0.01459   0.10454
   D18        0.61060   0.11887   0.00534   0.00000   0.00534   0.61595
   D19        2.97301  -0.00229   0.00602   0.00000   0.00602   2.97902
         Item               Value     Threshold  Converged?
 Maximum Force            3.086442     0.000450     NO 
 RMS     Force            0.588491     0.000300     NO 
 Maximum Displacement     0.666775     0.001800     NO 
 RMS     Displacement     0.222689     0.001200     NO 
 Predicted change in Energy=-4.901795D-01
 GradGradGradGradGradGradGradGradGradGradGradGradGradGradGradGradGradGrad

                          Input orientation:                          
 ---------------------------------------------------------------------
 Center     Atomic      Atomic             Coordinates (Angstroms)
 Number     Number       Type             X           Y           Z
 ---------------------------------------------------------------------
      1         15           0        0.180679    0.271168    0.069724
[...]
 19582345\O,0,3.4334106736,0.3423032986,-0.4915933356\H,0,4.3431006561,
 0.1068737763,-0.7056440728\H,0,3.3205535807,1.2380934192,-0.141061703\
 \Version=AM64L-G09RevD.01\State=1-A\HF=-919.030336\RMSD=6.585e-09\Dipo
 le=2.4671741,0.2511131,-0.3156585\Quadrupole=10.5215227,-5.502506,-5.0
 190167,0.3585315,-2.9150216,-0.3095035\PG=C01 [X(F2H3O5P1)]\\@


 TIME IS IN FACT THE HERO OF THE PLOT. THE TIME
 WITH WHICH WE HAVE TO DEAL IS OF THE ORDER OF TWO
 BILLION YEARS...GIVEN SO MUCH TIME, THE "IMPOSSIBLE"
 BECOMES POSSIBLE, THE POSSIBLE PROBABLE, THE PROBABLE
 VIRTUALLY CERTAIN.  ONE HAS ONLY TO WAIT, TIME
 ITSELF PERFORMS THE MIRACLES.
 "ORIGIN OF LIFE" LECTURES, GEORGE WALD, 1954
 Job cpu time:       0 days  0 hours  5 minutes 17.4 seconds.
 File lengths (MBytes):  RWF=     13 Int=      0 D2E=      0 Chk=      5 Scr=      1
 Normal termination of Gaussian 09 at Wed Jun 21 02:10:38 2017.
 Initial command:
 /usr/local/gaussian/gaussian09.d1/g09/l1.exe "/scratch/sarariop/HF2PO4-h2o.com/Gau-21027.inp" -scrdir="/scratch/sarariop/HF2PO4-h2o.com/"
 Default is to use a total of   8 processors:
                                8 via shared-memory
                                1 via Linda
 Entering Link 1 = /usr/local/gaussian/gaussian09.d1/g09/l1.exe PID=     25099.
  
 Copyright (c) 1988,1990,1992,1993,1995,1998,2003,2009,2013,
            Gaussian, Inc.  All Rights Reserved.
  
 This is part of the Gaussian(R) 09 program.  It is based on
 the Gaussian(R) 03 system (copyright 2003, Gaussian, Inc.),
 the Gaussian(R) 98 system (copyright 1998, Gaussian, Inc.),
 the Gaussian(R) 94 system (copyright 1995, Gaussian, Inc.),
 the Gaussian 92(TM) system (copyright 1992, Gaussian, Inc.),
 the Gaussian 90(TM) system (copyright 1990, Gaussian, Inc.),
 the Gaussian 88(TM) system (copyright 1988, Gaussian, Inc.),
 the Gaussian 86(TM) system (copyright 1986, Carnegie Mellon
 University), and the Gaussian 82(TM) system (copyright 1983,
 Carnegie Mellon University). Gaussian is a federally registered
 trademark of Gaussian, Inc.
  
 This software contains proprietary and confidential information,
 including trade secrets, belonging to Gaussian, Inc.
  
 This software is provided under written license and may be
 used, copied, transmitted, or stored only in accord with that
 written license.
  
 The following legend is applicable only to US Government
 contracts under FAR:
  
                    RESTRICTED RIGHTS LEGEND
  
 Use, reproduction and disclosure by the US Government is
 subject to restrictions as set forth in subparagraphs (a)
 and (c) of the Commercial Computer Software - Restricted
 Rights clause in FAR 52.227-19.
  
 Gaussian, Inc.
 340 Quinnipiac St., Bldg. 40, Wallingford CT 06492
  
  
 ---------------------------------------------------------------
 Warning -- This program may not be used in any manner that
 competes with the business of Gaussian, Inc. or will provide
 assistance to any competitor of Gaussian, Inc.  The licensee
 of this program is prohibited from giving any competitor of
 Gaussian, Inc. access to this program.  By using this program,
 the user acknowledges that Gaussian, Inc. is engaged in the
 business of creating and licensing software in the field of
 computational chemistry and represents and warrants to the
 licensee that it is not a competitor of Gaussian, Inc. and that
 it will not use this program in any manner prohibited above.
 ---------------------------------------------------------------
  

 Cite this work as:
 Gaussian 09, Revision D.01,
 M. J. Frisch, G. W. Trucks, H. B. Schlegel, G. E. Scuseria, 
 M. A. Robb, J. R. Cheeseman, G. Scalmani, V. Barone, B. Mennucci, 
 G. A. Petersson, H. Nakatsuji, M. Caricato, X. Li, H. P. Hratchian, 
 A. F. Izmaylov, J. Bloino, G. Zheng, J. L. Sonnenberg, M. Hada, 
 M. Ehara, K. Toyota, R. Fukuda, J. Hasegawa, M. Ishida, T. Nakajima, 
 Y. Honda, O. Kitao, H. Nakai, T. Vreven, J. A. Montgomery, Jr., 
 J. E. Peralta, F. Ogliaro, M. Bearpark, J. J. Heyd, E. Brothers, 
 K. N. Kudin, V. N. Staroverov, T. Keith, R. Kobayashi, J. Normand, 
 K. Raghavachari, A. Rendell, J. C. Burant, S. S. Iyengar, J. Tomasi, 
 M. Cossi, N. Rega, J. M. Millam, M. Klene, J. E. Knox, J. B. Cross, 
 V. Bakken, C. Adamo, J. Jaramillo, R. Gomperts, R. E. Stratmann, 
 O. Yazyev, A. J. Austin, R. Cammi, C. Pomelli, J. W. Ochterski, 
 R. L. Martin, K. Morokuma, V. G. Zakrzewski, G. A. Voth, 
 P. Salvador, J. J. Dannenberg, S. Dapprich, A. D. Daniels, 
 O. Farkas, J. B. Foresman, J. V. Ortiz, J. Cioslowski, 
 and D. J. Fox, Gaussian, Inc., Wallingford CT, 2013.
 
 ******************************************
 Gaussian 09:  AM64L-G09RevD.01 24-Apr-2013
                21-Jun-2017 
 ******************************************
 %chk=HF2PO4-h2o.chk
 Default route:  MaxDisk=56GB
 -------------------------------------------------
 # B3LYP/6-311G** geom=check guess=read output=wfx
 -------------------------------------------------
 1/29=2,38=1/1;
 2/12=2,40=1/2;
 3/5=4,6=6,7=101,11=2,14=-4,16=1,25=1,30=1,74=-5,116=-2/1,2,3;
 4/5=1/1;
 5/5=2,38=6/2;
 6/7=2,8=2,9=2,10=2,28=1/1;
 99/5=1,6=200,9=1/99;
 -------------------
 Title Card Required
 -------------------
 Structure from the checkpoint file:  "HF2PO4-h2o.chk"
 Charge =  0 Multiplicity = 1
 Redundant internal coordinates found in file.
 P,0,0.0936397412,0.2215579245,0.2119503624
 O,0,-2.2184798921,0.3467413155,-0.5648369154
 O,0,1.1769650243,-0.7105283494,-0.567388767
 H,0,2.163120583,-0.3882212172,-0.5965318422
 F,0,1.1710368697,1.5965398157,0.3955062255
 O,0,-1.0945070939,1.3796347355,-0.4398493377
 O,0,-1.3545719539,-0.8402233524,-0.1548638961
 F,0,0.0873874312,-0.0392991163,1.8819582345
 O,0,3.4334106736,0.3423032986,-0.4915933356
 H,0,4.3431006561,0.1068737763,-0.7056440728
 H,0,3.3205535807,1.2380934192,-0.141061703
 Recover connectivity data from disk.
                          Input orientation:                          
 ---------------------------------------------------------------------
 Center     Atomic      Atomic             Coordinates (Angstroms)
 Number     Number       Type             X           Y           Z
 ---------------------------------------------------------------------
      1         15           0        0.093640    0.221558    0.211950
      2          8           0       -2.218480    0.346741   -0.564837
      3          8           0        1.176965   -0.710528   -0.567389
      4          1           0        2.163121   -0.388221   -0.596532
      5          9           0        1.171037    1.596540    0.395506
      6          8           0       -1.094507    1.379635   -0.439849
      7          8           0       -1.354572   -0.840223   -0.154864
      8          9           0        0.087387   -0.039299    1.881958
      9          8           0        3.433411    0.342303   -0.491593
     10          1           0        4.343101    0.106874   -0.705644
     11          1           0        3.320554    1.238093   -0.141062
 ---------------------------------------------------------------------
                    Distance matrix (angstroms):
                    1          2          3          4          5
     1  P    0.000000
     2  O    2.442328   0.000000
     3  O    1.627805   3.556244   0.000000
     4  H    2.303959   4.442927   1.037899   0.000000
     5  F    1.756432   3.738058   2.499953   2.430565   0.000000
     6  O    1.782604   1.531602   3.089439   3.709717   2.424367
     7  O    1.832825   1.524237   2.568205   3.574009   3.552383
     8  F    1.690270   3.384207   2.763517   3.251665   2.461667
     9  O    3.415205   5.652367   2.491134   1.469121   2.734665
    10  H    4.348914   6.567473   3.272870   2.238155   3.673367
    11  H    3.401608   5.626276   2.928114   2.047438   2.244284
                    6          7          8          9         10
     6  O    0.000000
     7  O    2.253136   0.000000
     8  F    2.966654   2.620948   0.000000
     9  O    4.645511   4.943332   4.120102   0.000000
    10  H    5.590898   5.802054   4.982785   0.963733   0.000000
    11  H    4.427422   5.116287   4.022152   0.968529   1.626042
                   11
    11  H    0.000000
 Stoichiometry    F2H3O5P
 Framework group  C1[X(F2H3O5P)]
 Deg. of freedom    27
 Full point group                 C1      NOp   1
 Largest Abelian subgroup         C1      NOp   1
 Largest concise Abelian subgroup C1      NOp   1
                         Standard orientation:                         
 ---------------------------------------------------------------------
 Center     Atomic      Atomic             Coordinates (Angstroms)
 Number     Number       Type             X           Y           Z
 ---------------------------------------------------------------------
      1         15           0       -0.203544    0.001480    0.162031
      2          8           0       -2.490588   -0.116202   -0.686820
      3          8           0        0.849739   -1.203894   -0.133634
      4          1           0        1.850571   -0.956075   -0.252604
      5          9           0        0.934385    1.294133   -0.183244
      6          8           0       -1.321304    0.838475   -0.945998
      7          8           0       -1.693042   -1.065877    0.199372
      8          9           0       -0.256564    0.438509    1.793964
      9          8           0        3.151924   -0.291037   -0.402671
     10          1           0        4.053517   -0.625002   -0.468842
     11          1           0        3.074865    0.673381   -0.447491
 ---------------------------------------------------------------------
 Rotational constants (GHZ):      2.8124669      1.0527492      1.0462133
 Standard basis: 6-311G(d,p) (5D, 7F)
 There are   178 symmetry adapted cartesian basis functions of A   symmetry.
 There are   170 symmetry adapted basis functions of A   symmetry.
   170 basis functions,   294 primitive gaussians,   178 cartesian basis functions
    38 alpha electrons       38 beta electrons
       nuclear repulsion energy       552.2838106855 Hartrees.
 NAtoms=   11 NActive=   11 NUniq=   11 SFac= 1.00D+00 NAtFMM=   60 NAOKFM=F Big=F
 Integral buffers will be    131072 words long.
 Raffenetti 2 integral format.
 Two-electron integral symmetry is turned on.
 One-electron integrals computed using PRISM.
 NBasis=   170 RedAO= T EigKep=  1.29D-02  NBF=   170
 NBsUse=   170 1.00D-06 EigRej= -1.00D+00 NBFU=   170
 Initial guess from the checkpoint file:  "HF2PO4-h2o.chk"
 B after Tr=     0.000000    0.000000    0.000000
         Rot=    1.000000    0.000000    0.000000    0.000000 Ang=   0.00 deg.
 Keep R1 ints in memory in canonical form, NReq=108624305.
 Requested convergence on RMS density matrix=1.00D-08 within 128 cycles.
 Requested convergence on MAX density matrix=1.00D-06.
 Requested convergence on             energy=1.00D-06.
 No special actions if energy rises.
 SCF Done:  E(RB3LYP) =  -919.030335985     A.U. after    1 cycles
            NFock=  1  Conv=0.33D-08     -V/T= 2.0030

 **********************************************************************

            Population analysis using the SCF density.

 **********************************************************************

 Orbital symmetries:
       Occupied  (A) (A) (A) (A) (A) (A) (A) (A) (A) (A) (A) (A)
                 (A) (A) (A) (A) (A) (A) (A) (A) (A) (A) (A) (A)
                 (A) (A) (A) (A) (A) (A) (A) (A) (A) (A) (A) (A)
                 (A) (A)
       Virtual   (A) (A) (A) (A) (A) (A) (A) (A) (A) (A) (A) (A)
                 (A) (A) (A) (A) (A) (A) (A) (A) (A) (A) (A) (A)
                 (A) (A) (A) (A) (A) (A) (A) (A) (A) (A) (A) (A)
                 (A) (A) (A) (A) (A) (A) (A) (A) (A) (A) (A) (A)
                 (A) (A) (A) (A) (A) (A) (A) (A) (A) (A) (A) (A)
                 (A) (A) (A) (A) (A) (A) (A) (A) (A) (A) (A) (A)
                 (A) (A) (A) (A) (A) (A) (A) (A) (A) (A) (A) (A)
                 (A) (A) (A) (A) (A) (A) (A) (A) (A) (A) (A) (A)
                 (A) (A) (A) (A) (A) (A) (A) (A) (A) (A) (A) (A)
                 (A) (A) (A) (A) (A) (A) (A) (A) (A) (A) (A) (A)
                 (A) (A) (A) (A) (A) (A) (A) (A) (A) (A) (A) (A)
 The electronic state is 1-A.
 Alpha  occ. eigenvalues --  -77.30750 -24.71266 -24.68342 -19.26399 -19.23644
 Alpha  occ. eigenvalues --  -19.21170 -19.18835 -19.18359  -6.77444  -4.93809
 Alpha  occ. eigenvalues --   -4.93721  -4.93604  -1.23220  -1.19088  -1.16648
 Alpha  occ. eigenvalues --   -1.08725  -1.05974  -0.99550  -0.88015  -0.67269
 Alpha  occ. eigenvalues --   -0.61999  -0.59576  -0.56118  -0.52746  -0.51059
 Alpha  occ. eigenvalues --   -0.48345  -0.48096  -0.46232  -0.45243  -0.44977
 Alpha  occ. eigenvalues --   -0.42352  -0.41875  -0.39533  -0.39226  -0.37973
 Alpha  occ. eigenvalues --   -0.37098  -0.35590  -0.28883
 Alpha virt. eigenvalues --   -0.08073  -0.06989  -0.05729  -0.00971   0.02810
 Alpha virt. eigenvalues --    0.06663   0.08077   0.10074   0.17078   0.17397
 Alpha virt. eigenvalues --    0.19209   0.21440   0.29422   0.32279   0.33137
 Alpha virt. eigenvalues --    0.42048   0.51159   0.53687   0.63397   0.67175
 Alpha virt. eigenvalues --    0.67738   0.69434   0.72720   0.73681   0.76431
 Alpha virt. eigenvalues --    0.77314   0.79206   0.81382   0.82069   0.83100
 Alpha virt. eigenvalues --    0.86551   0.88258   0.90829   0.93728   0.94783
 Alpha virt. eigenvalues --    0.99816   1.04449   1.07131   1.08260   1.13045
 Alpha virt. eigenvalues --    1.15564   1.18083   1.19306   1.20919   1.28443
 Alpha virt. eigenvalues --    1.29391   1.32806   1.38899   1.47730   1.49033
 Alpha virt. eigenvalues --    1.50686   1.52818   1.56017   1.57947   1.62846
 Alpha virt. eigenvalues --    1.67022   1.76673   1.82618   1.91786   1.96142
 Alpha virt. eigenvalues --    2.19449   2.33460   2.34699   2.46335   2.48944
 Alpha virt. eigenvalues --    2.52373   2.52730   2.55572   2.56673   2.75124
 Alpha virt. eigenvalues --    2.78681   2.81437   2.88422   2.90934   2.93147
 Alpha virt. eigenvalues --    2.98842   3.01569   3.03508   3.04440   3.07159
 Alpha virt. eigenvalues --    3.10373   3.13273   3.22634   3.30903   3.49130
 Alpha virt. eigenvalues --    3.61449   3.62320   3.67132   3.74357   3.75035
 Alpha virt. eigenvalues --    3.75157   3.76076   3.76813   3.77991   3.79502
 Alpha virt. eigenvalues --    3.80670   3.85670   3.99087   4.06247   4.57548
 Alpha virt. eigenvalues --    4.61229   4.66821   4.68370   4.72517   4.74903
 Alpha virt. eigenvalues --    4.77824   4.81575   4.83944   4.85236   5.12344
 Alpha virt. eigenvalues --    5.14992   5.26539   5.56360   5.60926   5.97985
 Alpha virt. eigenvalues --    6.07164   6.09225   6.11164   6.15063   6.21005
 Alpha virt. eigenvalues --    6.75362  13.67948  13.76829  13.84907  49.64893
 Alpha virt. eigenvalues --   49.69889  49.73527  49.76825  49.81108  66.64537
 Alpha virt. eigenvalues --   66.69486 162.72407
          Condensed to atoms (all electrons):
               1          2          3          4          5          6
     1  P   12.294088  -0.059482   0.347409  -0.029543   0.199151   0.243530
     2  O   -0.059482   7.963349   0.000901  -0.000078   0.000591   0.057403
     3  O    0.347409   0.000901   8.031712   0.281415  -0.027712  -0.005157
     4  H   -0.029543  -0.000078   0.281415   0.290808   0.003736  -0.000873
     5  F    0.199151   0.000591  -0.027712   0.003736   9.291606  -0.021896
     6  O    0.243530   0.057403  -0.005157  -0.000873  -0.021896   8.116325
     7  O    0.240584   0.063044  -0.027136  -0.000087   0.000401  -0.077776
     8  F    0.245351   0.000756  -0.012010  -0.001231  -0.018940  -0.004584
     9  O    0.001287   0.000000  -0.045569   0.092560  -0.001382  -0.000006
    10  H    0.000577   0.000000   0.002374  -0.005986  -0.000234   0.000001
    11  H    0.000007  -0.000007   0.004552  -0.012142   0.013829   0.000082
               7          8          9         10         11
     1  P    0.240584   0.245351   0.001287   0.000577   0.000007
     2  O    0.063044   0.000756   0.000000   0.000000  -0.000007
     3  O   -0.027136  -0.012010  -0.045569   0.002374   0.004552
     4  H   -0.000087  -0.001231   0.092560  -0.005986  -0.012142
     5  F    0.000401  -0.018940  -0.001382  -0.000234   0.013829
     6  O   -0.077776  -0.004584  -0.000006   0.000001   0.000082
     7  O    8.149608  -0.019893  -0.000006   0.000004  -0.000019
     8  F   -0.019893   9.151165  -0.000030   0.000007  -0.000094
     9  O   -0.000006  -0.000030   7.837343   0.319342   0.314951
    10  H    0.000004   0.000007   0.319342   0.400290  -0.017681
    11  H   -0.000019  -0.000094   0.314951  -0.017681   0.385118
 Mulliken charges:
               1
     1  P    1.517040
     2  O   -0.026477
     3  O   -0.550780
     4  H    0.381422
     5  F   -0.439152
     6  O   -0.307049
     7  O   -0.328724
     8  F   -0.340498
     9  O   -0.518492
    10  H    0.301306
    11  H    0.311404
 Sum of Mulliken charges =   0.00000
 Mulliken charges with hydrogens summed into heavy atoms:
               1
     1  P    1.517040
     2  O   -0.026477
     3  O   -0.169359
     5  F   -0.439152
     6  O   -0.307049
     7  O   -0.328724
     8  F   -0.340498
     9  O    0.094218
 Electronic spatial extent (au):  <R**2>=           1172.2193
 Charge=              0.0000 electrons
 Dipole moment (field-independent basis, Debye):
    X=              6.3094    Y=              0.0366    Z=             -0.7519  Tot=              6.3542
 Quadrupole moment (field-independent basis, Debye-Ang):
   XX=            -33.1000   YY=            -54.8955   ZZ=            -54.2086
   XY=             -1.9154   XZ=             -2.9840   YZ=              0.0216
 Traceless Quadrupole moment (field-independent basis, Debye-Ang):
   XX=             14.3014   YY=             -7.4942   ZZ=             -6.8073
   XY=             -1.9154   XZ=             -2.9840   YZ=              0.0216
 Octapole moment (field-independent basis, Debye-Ang**2):
  XXX=            107.8236  YYY=              6.7828  ZZZ=              0.2471  XYY=              9.1620
  XXY=             -2.1673  XXZ=             -9.9860  XZZ=              4.4063  YZZ=              0.1953
  YYZ=              1.8607  XYZ=             -0.7905
 Hexadecapole moment (field-independent basis, Debye-Ang**3):
 XXXX=           -458.2013 YYYY=           -226.0694 ZZZZ=           -204.0213 XXXY=            -32.3740
 XXXZ=            -51.0704 YYYX=             -1.6553 YYYZ=              2.7086 ZZZX=             -1.4777
 ZZZY=             -0.1927 XXYY=           -158.5420 XXZZ=           -176.2342 YYZZ=            -68.8826
 XXYZ=              3.9964 YYXZ=             -4.3389 ZZXY=              1.3862
 N-N= 5.522838106855D+02 E-N=-3.286293607831D+03  KE= 9.163084032281D+02
 1\1\GINC-BLADI31\SP\RB3LYP\6-311G(d,p)\F2H3O5P1\ROOT\21-Jun-2017\0\\# 
 B3LYP/6-311G** geom=check guess=read output=wfx\\Title Card Required\\
 0,1\P,0,0.0936397412,0.2215579245,0.2119503624\O,0,-2.2184798921,0.346
 7413155,-0.5648369154\O,0,1.1769650243,-0.7105283494,-0.567388767\H,0,
 2.163120583,-0.3882212172,-0.5965318422\F,0,1.1710368697,1.5965398157,
 0.3955062255\O,0,-1.0945070939,1.3796347355,-0.4398493377\O,0,-1.35457
 19539,-0.8402233524,-0.1548638961\F,0,0.0873874312,-0.0392991163,1.881
 9582345\O,0,3.4334106736,0.3423032986,-0.4915933356\H,0,4.3431006561,0
 .1068737763,-0.7056440728\H,0,3.3205535807,1.2380934192,-0.141061703\\
 Version=AM64L-G09RevD.01\State=1-A\HF=-919.030336\RMSD=3.322e-09\Dipol
 e=2.4671736,0.2511137,-0.3156602\Quadrupole=10.5215273,-5.5025056,-5.0
 190216,0.3585291,-2.9150203,-0.3095025\PG=C01 [X(F2H3O5P1)]\\@

 Writing a WFNX file to "HF2PO4-h2o.wfx"


 BRING ME INTO THE COMPANY OF THOSE WHO SEEK TRUTH,
 AND DELIVER ME FROM THOSE WHO HAVE FOUND IT.
 Job cpu time:       0 days  0 hours  0 minutes 55.3 seconds.
 File lengths (MBytes):  RWF=     13 Int=      0 D2E=      0 Chk=      5 Scr=      1
 Normal termination of Gaussian 09 at Wed Jun 21 02:10:47 2017.
