 Entering Gaussian System, Link 0=g09
 Initial command:
 /usr/local/gaussian/gaussian09.d1/g09/l1.exe "/scratch/sarariop/HFCO3-h2o.com/Gau-32328.inp" -scrdir="/scratch/sarariop/HFCO3-h2o.com/"
 Default is to use a total of  10 processors:
                               10 via shared-memory
                                1 via Linda
 Entering Link 1 = /usr/local/gaussian/gaussian09.d1/g09/l1.exe PID=     32329.
  
 Copyright (c) 1988,1990,1992,1993,1995,1998,2003,2009,2013,
            Gaussian, Inc.  All Rights Reserved.
  
 This is part of the Gaussian(R) 09 program.  It is based on
 the Gaussian(R) 03 system (copyright 2003, Gaussian, Inc.),
 the Gaussian(R) 98 system (copyright 1998, Gaussian, Inc.),
 the Gaussian(R) 94 system (copyright 1995, Gaussian, Inc.),
 the Gaussian 92(TM) system (copyright 1992, Gaussian, Inc.),
 the Gaussian 90(TM) system (copyright 1990, Gaussian, Inc.),
 the Gaussian 88(TM) system (copyright 1988, Gaussian, Inc.),
 the Gaussian 86(TM) system (copyright 1986, Carnegie Mellon
 University), and the Gaussian 82(TM) system (copyright 1983,
 Carnegie Mellon University). Gaussian is a federally registered
 trademark of Gaussian, Inc.
  
 This software contains proprietary and confidential information,
 including trade secrets, belonging to Gaussian, Inc.
  
 This software is provided under written license and may be
 used, copied, transmitted, or stored only in accord with that
 written license.
  
 The following legend is applicable only to US Government
 contracts under FAR:
  
                    RESTRICTED RIGHTS LEGEND
  
 Use, reproduction and disclosure by the US Government is
 subject to restrictions as set forth in subparagraphs (a)
 and (c) of the Commercial Computer Software - Restricted
 Rights clause in FAR 52.227-19.
  
 Gaussian, Inc.
 340 Quinnipiac St., Bldg. 40, Wallingford CT 06492
  
  
 ---------------------------------------------------------------
 Warning -- This program may not be used in any manner that
 competes with the business of Gaussian, Inc. or will provide
 assistance to any competitor of Gaussian, Inc.  The licensee
 of this program is prohibited from giving any competitor of
 Gaussian, Inc. access to this program.  By using this program,
 the user acknowledges that Gaussian, Inc. is engaged in the
 business of creating and licensing software in the field of
 computational chemistry and represents and warrants to the
 licensee that it is not a competitor of Gaussian, Inc. and that
 it will not use this program in any manner prohibited above.
 ---------------------------------------------------------------
  

 Cite this work as:
 Gaussian 09, Revision D.01,
 M. J. Frisch, G. W. Trucks, H. B. Schlegel, G. E. Scuseria, 
 M. A. Robb, J. R. Cheeseman, G. Scalmani, V. Barone, B. Mennucci, 
 G. A. Petersson, H. Nakatsuji, M. Caricato, X. Li, H. P. Hratchian, 
 A. F. Izmaylov, J. Bloino, G. Zheng, J. L. Sonnenberg, M. Hada, 
 M. Ehara, K. Toyota, R. Fukuda, J. Hasegawa, M. Ishida, T. Nakajima, 
 Y. Honda, O. Kitao, H. Nakai, T. Vreven, J. A. Montgomery, Jr., 
 J. E. Peralta, F. Ogliaro, M. Bearpark, J. J. Heyd, E. Brothers, 
 K. N. Kudin, V. N. Staroverov, T. Keith, R. Kobayashi, J. Normand, 
 K. Raghavachari, A. Rendell, J. C. Burant, S. S. Iyengar, J. Tomasi, 
 M. Cossi, N. Rega, J. M. Millam, M. Klene, J. E. Knox, J. B. Cross, 
 V. Bakken, C. Adamo, J. Jaramillo, R. Gomperts, R. E. Stratmann, 
 O. Yazyev, A. J. Austin, R. Cammi, C. Pomelli, J. W. Ochterski, 
 R. L. Martin, K. Morokuma, V. G. Zakrzewski, G. A. Voth, 
 P. Salvador, J. J. Dannenberg, S. Dapprich, A. D. Daniels, 
 O. Farkas, J. B. Foresman, J. V. Ortiz, J. Cioslowski, 
 and D. J. Fox, Gaussian, Inc., Wallingford CT, 2013.
 
 ******************************************
 Gaussian 09:  AM64L-G09RevD.01 24-Apr-2013
                23-Jun-2017 
 ******************************************
 %chk=HFCO3-h2o.chk
 Default route:  MaxDisk=70GB
 -----------------------------------------
 # opt freq b3lyp/6-311g geom=connectivity
 -----------------------------------------
 1/14=-1,18=20,19=15,26=3,38=1,57=2/1,3;
 2/9=110,12=2,17=6,18=5,40=1/2;
 3/5=4,6=6,11=2,16=1,25=1,30=1,71=1,74=-5/1,2,3;
 4//1;
 5/5=2,38=5/2;
 6/7=2,8=2,9=2,10=2,28=1/1;
 7//1,2,3,16;
 1/14=-1,18=20,19=15,26=3/3(2);
 2/9=110/2;
 99//99;
 2/9=110/2;
 3/5=4,6=6,11=2,16=1,25=1,30=1,71=1,74=-5/1,2,3;
 4/5=5,16=3,69=1/1;
 5/5=2,38=5/2;
 7//1,2,3,16;
 1/14=-1,18=20,19=15,26=3/3(-5);
 2/9=110/2;
 6/7=2,8=2,9=2,10=2,19=2,28=1/1;
 99/9=1/99;
 -------------------
 Title Card Required
 -------------------
 Symbolic Z-matrix:
 Charge =  0 Multiplicity = 1
 C                     0.12346   0.60494   0. 
 O                    -0.90401  -0.0022    0.00018 
 O                     1.27727  -0.12883   0.00001 
 O                     0.31817   1.9167    0.00009 
 H                    -0.55972   2.3238    0.00003 
 F                     2.4421    0.71661   0.00016 
 O                     0.22477   3.0071    0.89864 
 H                     1.18477   3.0071    0.89864 
 H                    -0.09568   3.91204   0.89864 
 
 Add virtual bond connecting atoms O7         and O4         Dist= 2.68D+00.
 Add virtual bond connecting atoms O7         and H5         Dist= 2.60D+00.
 Add virtual bond connecting atoms F6         and O3         Dist= 2.72D+00.

 GradGradGradGradGradGradGradGradGradGradGradGradGradGradGradGradGradGrad
 Berny optimization.
 Initialization pass.
                           ----------------------------
                           !    Initial Parameters    !
                           ! (Angstroms and Degrees)  !
 --------------------------                            --------------------------
 ! Name  Definition              Value          Derivative Info.                !
 --------------------------------------------------------------------------------
 ! R1    R(1,2)                  1.1934         estimate D2E/DX2                !
 ! R2    R(1,3)                  1.3674         estimate D2E/DX2                !
 ! R3    R(1,4)                  1.3261         estimate D2E/DX2                !
 ! R4    R(3,6)                  1.4393         estimate D2E/DX2                !
 ! R5    R(4,5)                  0.9677         estimate D2E/DX2                !
 ! R6    R(4,7)                  1.416          estimate D2E/DX2                !
 ! R7    R(5,7)                  1.3747         estimate D2E/DX2                !
 ! R8    R(7,8)                  0.96           estimate D2E/DX2                !
 ! R9    R(7,9)                  0.96           estimate D2E/DX2                !
 ! A1    A(2,1,3)              116.9663         estimate D2E/DX2                !
 ! A2    A(2,1,4)              129.0226         estimate D2E/DX2                !
 ! A3    A(3,1,4)              114.0112         estimate D2E/DX2                !
 ! A4    A(1,3,6)              111.5731         estimate D2E/DX2                !
 ! A5    A(1,4,5)              106.4354         estimate D2E/DX2                !
 ! A6    A(1,4,7)              138.7692         estimate D2E/DX2                !
 ! A7    A(4,7,8)               86.218          estimate D2E/DX2                !
 ! A8    A(4,7,9)              138.4087         estimate D2E/DX2                !
 ! A9    A(5,7,8)              124.7961         estimate D2E/DX2                !
 ! A10   A(5,7,9)              106.1438         estimate D2E/DX2                !
 ! A11   A(8,7,9)              109.5            estimate D2E/DX2                !
 ! D1    D(2,1,3,6)           -179.984          estimate D2E/DX2                !
 ! D2    D(4,1,3,6)              0.0021         estimate D2E/DX2                !
 ! D3    D(2,1,4,5)             -0.0188         estimate D2E/DX2                !
 ! D4    D(2,1,4,7)             74.2895         estimate D2E/DX2                !
 ! D5    D(3,1,4,5)            179.9972         estimate D2E/DX2                !
 ! D6    D(3,1,4,7)           -105.6945         estimate D2E/DX2                !
 ! D7    D(1,4,7,8)            107.379          estimate D2E/DX2                !
 ! D8    D(1,4,7,9)           -137.1863         estimate D2E/DX2                !
 --------------------------------------------------------------------------------
 Trust Radius=3.00D-01 FncErr=1.00D-07 GrdErr=1.00D-06
 Number of steps in this run=     38 maximum allowed number of steps=    100.
 GradGradGradGradGradGradGradGradGradGradGradGradGradGradGradGradGradGrad

                          Input orientation:                          
 ---------------------------------------------------------------------
 Center     Atomic      Atomic             Coordinates (Angstroms)
 Number     Number       Type             X           Y           Z
 ---------------------------------------------------------------------
      1          6           0        0.123457    0.604938    0.000000
      2          8           0       -0.904006   -0.002200    0.000176
      3          8           0        1.277272   -0.128835    0.000008
      4          8           0        0.318174    1.916698    0.000088
      5          1           0       -0.559715    2.323804    0.000028
      6          9           0        2.442103    0.716607    0.000160
      7          8           0        0.224772    3.007101    0.898643
      8          1           0        1.184772    3.007101    0.898643
      9          1           0       -0.095682    3.912037    0.898643
 ---------------------------------------------------------------------
                    Distance matrix (angstroms):
                    1          2          3          4          5
     1  C    0.000000
     2  O    1.193439   0.000000
     3  O    1.367374   2.184951   0.000000
     4  O    1.326133   2.275059   2.259220   0.000000
     5  H    1.849655   2.351347   3.064304   0.967690   0.000000
     6  F    2.321334   3.422445   1.439307   2.439527   3.404995
     7  O    2.566751   3.337255   3.427739   1.416016   1.374709
     8  H    2.775668   3.771754   3.263463   1.657520   2.077893
     9  H    3.434018   4.096569   4.361329   2.227118   1.882901
                    6          7          8          9
     6  F    0.000000
     7  O    3.312127   0.000000
     8  H    2.763062   0.960000   0.000000
     9  H    4.178324   0.960000   1.567952   0.000000
 Stoichiometry    CH3FO4
 Framework group  C1[X(CH3FO4)]
 Deg. of freedom    21
 Full point group                 C1      NOp   1
 Largest Abelian subgroup         C1      NOp   1
 Largest concise Abelian subgroup C1      NOp   1
                         Standard orientation:                         
 ---------------------------------------------------------------------
 Center     Atomic      Atomic             Coordinates (Angstroms)
 Number     Number       Type             X           Y           Z
 ---------------------------------------------------------------------
      1          6           0        0.357983    0.663809    0.049754
      2          8           0        0.530896    1.837378   -0.081145
      3          8           0        1.441012   -0.147989   -0.144526
      4          8           0       -0.754579    0.013542    0.362782
      5          1           0       -1.442180    0.685263    0.474225
      6          9           0        1.103123   -1.534665    0.041392
      7          8           0       -1.978928   -0.356066   -0.245052
      8          1           0       -1.628682   -1.249775   -0.259590
      9          1           0       -2.912353   -0.381278   -0.022159
 ---------------------------------------------------------------------
 Rotational constants (GHZ):      4.5086321      3.3432092      1.9776628
 Standard basis: 6-311G (5D, 7F)
 There are    87 symmetry adapted cartesian basis functions of A   symmetry.
 There are    87 symmetry adapted basis functions of A   symmetry.
    87 basis functions,   171 primitive gaussians,    87 cartesian basis functions
    25 alpha electrons       25 beta electrons
       nuclear repulsion energy       272.5233209026 Hartrees.
 NAtoms=    9 NActive=    9 NUniq=    9 SFac= 1.00D+00 NAtFMM=   60 NAOKFM=F Big=F
 Integral buffers will be    131072 words long.
 Raffenetti 2 integral format.
 Two-electron integral symmetry is turned on.
 One-electron integrals computed using PRISM.
 NBasis=    87 RedAO= T EigKep=  1.14D-02  NBF=    87
 NBsUse=    87 1.00D-06 EigRej= -1.00D+00 NBFU=    87
 ExpMin= 1.03D-01 ExpMax= 1.14D+04 ExpMxC= 1.72D+03 IAcc=1 IRadAn=         1 AccDes= 0.00D+00
 Harris functional with IExCor=  402 and IRadAn=       1 diagonalized for initial guess.
 HarFok:  IExCor=  402 AccDes= 0.00D+00 IRadAn=         1 IDoV= 1 UseB2=F ITyADJ=14
 ICtDFT=  3500011 ScaDFX=  1.000000  1.000000  1.000000  1.000000
 FoFCou: FMM=F IPFlag=           0 FMFlag=      100000 FMFlg1=           0
         NFxFlg=           0 DoJE=T BraDBF=F KetDBF=T FulRan=T
         wScrn=  0.000000 ICntrl=     500 IOpCl=  0 I1Cent=   200000004 NGrid=           0
         NMat0=    1 NMatS0=      1 NMatT0=    0 NMatD0=    1 NMtDS0=    0 NMtDT0=    0
 Petite list used in FoFCou.
 Keep R1 ints in memory in canonical form, NReq=8278097.
 Requested convergence on RMS density matrix=1.00D-08 within 128 cycles.
 Requested convergence on MAX density matrix=1.00D-06.
 Requested convergence on             energy=1.00D-06.
 No special actions if energy rises.
 Integral accuracy reduced to 1.0D-05 until final iterations.
 EnCoef did     3 forward-backward iterations
 EnCoef did     3 forward-backward iterations
 EnCoef did     5 forward-backward iterations
 EnCoef did     3 forward-backward iterations
 Initial convergence to 1.0D-05 achieved.  Increase integral accuracy.
 SCF Done:  E(RB3LYP) =  -440.176342110     A.U. after   22 cycles
            NFock= 22  Conv=0.90D-08     -V/T= 1.9968

 **********************************************************************

            Population analysis using the SCF density.

 **********************************************************************

 Orbital symmetries:
       Occupied  (A) (A) (A) (A) (A) (A) (A) (A) (A) (A) (A) (A)
                 (A) (A) (A) (A) (A) (A) (A) (A) (A) (A) (A) (A)
                 (A)
       Virtual   (A) (A) (A) (A) (A) (A) (A) (A) (A) (A) (A) (A)
                 (A) (A) (A) (A) (A) (A) (A) (A) (A) (A) (A) (A)
                 (A) (A) (A) (A) (A) (A) (A) (A) (A) (A) (A) (A)
                 (A) (A) (A) (A) (A) (A) (A) (A) (A) (A) (A) (A)
                 (A) (A) (A) (A) (A) (A) (A) (A) (A) (A) (A) (A)
                 (A) (A)
 The electronic state is 1-A.
 Alpha  occ. eigenvalues --  -24.72405 -19.25786 -19.21401 -19.16517 -19.13438
 Alpha  occ. eigenvalues --  -10.35810  -1.28291  -1.25156  -1.13243  -1.04422
 Alpha  occ. eigenvalues --   -1.01561  -0.74222  -0.67981  -0.61784  -0.55430
 Alpha  occ. eigenvalues --   -0.51745  -0.49573  -0.47464  -0.44655  -0.42785
 Alpha  occ. eigenvalues --   -0.40449  -0.36415  -0.33062  -0.32040  -0.19977
 Alpha virt. eigenvalues --   -0.08863  -0.02730   0.00732   0.05902   0.07001
 Alpha virt. eigenvalues --    0.15706   0.25879   0.32844   0.34956   0.36315
 Alpha virt. eigenvalues --    0.36864   0.41350   0.42967   0.48869   0.61137
 Alpha virt. eigenvalues --    0.71492   0.72159   0.76606   0.78006   0.79598
 Alpha virt. eigenvalues --    0.82397   0.86155   0.87576   0.90058   0.95100
 Alpha virt. eigenvalues --    0.97611   1.03582   1.08278   1.11130   1.19584
 Alpha virt. eigenvalues --    1.26248   1.38144   1.54529   1.57123   1.65544
 Alpha virt. eigenvalues --    2.07409   2.18494   2.21817   2.51585   2.76600
 Alpha virt. eigenvalues --    2.82444   4.47757   4.66102   4.69220   4.70719
 Alpha virt. eigenvalues --    4.73689   4.83283   4.84863   4.87823   4.89744
 Alpha virt. eigenvalues --    4.93622   4.99123   5.39814   6.00208   6.08311
 Alpha virt. eigenvalues --    6.14827  23.26251  49.69260  49.72468  49.78136
 Alpha virt. eigenvalues --   49.85441  66.60033
          Condensed to atoms (all electrons):
               1          2          3          4          5          6
     1  C    4.703107   0.577841   0.079596   0.027623  -0.016283  -0.021678
     2  O    0.577841   7.935446  -0.078392  -0.095864   0.004423   0.001669
     3  O    0.079596  -0.078392   8.255309  -0.109160   0.002013  -0.011300
     4  O    0.027623  -0.095864  -0.109160   9.675113   0.284373   0.003598
     5  H   -0.016283   0.004423   0.002013   0.284373   0.338599   0.000039
     6  F   -0.021678   0.001669  -0.011300   0.003598   0.000039   9.183203
     7  O    0.061696  -0.000602  -0.002815  -1.473543  -0.074167  -0.000769
     8  H   -0.012451  -0.000272   0.000668   0.006903   0.004809   0.008415
     9  H   -0.006021   0.000582   0.000501   0.147819  -0.009490  -0.000302
               7          8          9
     1  C    0.061696  -0.012451  -0.006021
     2  O   -0.000602  -0.000272   0.000582
     3  O   -0.002815   0.000668   0.000501
     4  O   -1.473543   0.006903   0.147819
     5  H   -0.074167   0.004809  -0.009490
     6  F   -0.000769   0.008415  -0.000302
     7  O   10.025274   0.206859  -0.048980
     8  H    0.206859   0.340096   0.001785
     9  H   -0.048980   0.001785   0.625607
 Mulliken charges:
               1
     1  C    0.606569
     2  O   -0.344830
     3  O   -0.136421
     4  O   -0.466861
     5  H    0.465684
     6  F   -0.162874
     7  O   -0.692952
     8  H    0.443187
     9  H    0.288498
 Sum of Mulliken charges =   0.00000
 Mulliken charges with hydrogens summed into heavy atoms:
               1
     1  C    0.606569
     2  O   -0.344830
     3  O   -0.136421
     4  O   -0.001177
     6  F   -0.162874
     7  O    0.038734
 Electronic spatial extent (au):  <R**2>=            561.4435
 Charge=              0.0000 electrons
 Dipole moment (field-independent basis, Debye):
    X=             -4.4233    Y=             -1.8624    Z=              1.0036  Tot=              4.9032
 Quadrupole moment (field-independent basis, Debye-Ang):
   XX=            -30.5404   YY=            -37.5923   ZZ=            -33.8949
   XY=             -0.4447   XZ=             -2.1729   YZ=              1.5065
 Traceless Quadrupole moment (field-independent basis, Debye-Ang):
   XX=              3.4688   YY=             -3.5831   ZZ=              0.1143
   XY=             -0.4447   XZ=             -2.1729   YZ=              1.5065
 Octapole moment (field-independent basis, Debye-Ang**2):
  XXX=            -16.2918  YYY=            -24.4174  ZZZ=              1.0561  XYY=            -10.1186
  XXY=             -2.7874  XXZ=              7.6849  XZZ=              2.2422  YZZ=             -1.8702
  YYZ=              0.9056  XYZ=             -0.8165
 Hexadecapole moment (field-independent basis, Debye-Ang**3):
 XXXX=           -311.3868 YYYY=           -255.0746 ZZZZ=            -34.4794 XXXY=             -7.9819
 XXXZ=            -15.3699 YYYX=             -9.3762 YYYZ=              2.5685 ZZZX=             -2.5581
 ZZZY=              0.1742 XXYY=            -90.4860 XXZZ=            -66.3530 YYZZ=            -43.8404
 XXYZ=              1.3804 YYXZ=              0.1085 ZZXY=             -3.8365
 N-N= 2.725233209026D+02 E-N=-1.588750921407D+03  KE= 4.415889860087D+02
 Calling FoFJK, ICntrl=      2127 FMM=F ISym2X=0 I1Cent= 0 IOpClX= 0 NMat=1 NMatS=1 NMatT=0.
 ***** Axes restored to original set *****
 -------------------------------------------------------------------
 Center     Atomic                   Forces (Hartrees/Bohr)
 Number     Number              X              Y              Z
 -------------------------------------------------------------------
      1        6           0.034605652   -0.005265632   -0.048816701
      2        8          -0.059016343   -0.033946225    0.013139093
      3        8          -0.000744537   -0.051803119    0.013985495
      4        8          -0.015186954   -0.403617035   -0.327114060
      5        1          -0.016195102   -0.039363630   -0.048394169
      6        9           0.033802605    0.026136581   -0.000956106
      7        8           0.026097965    0.415527235    0.342538866
      8        1           0.005463409    0.025809907    0.021911707
      9        1          -0.008826697    0.066521919    0.033705876
 -------------------------------------------------------------------
 Cartesian Forces:  Max     0.415527235 RMS     0.147184629

 GradGradGradGradGradGradGradGradGradGradGradGradGradGradGradGradGradGrad
 Berny optimization.
 FormGI is forming the generalized inverse of G from B-inverse, IUseBI=4.
 Internal  Forces:  Max     0.513496913 RMS     0.109456080
 Search for a local minimum.
 Step number   1 out of a maximum of   38
 All quantities printed in internal units (Hartrees-Bohrs-Radians)
 Mixed Optimization -- RFO/linear search
 Second derivative matrix not updated -- first step.
 ITU=  0
     Eigenvalues ---    0.01633   0.02123   0.02519   0.02669   0.06750
     Eigenvalues ---    0.07946   0.15593   0.16000   0.16000   0.24857
     Eigenvalues ---    0.25000   0.25000   0.25000   0.38589   0.39681
     Eigenvalues ---    0.48666   0.51485   0.55473   0.55473   0.60428
     Eigenvalues ---    1.08190
 RFO step:  Lambda=-4.16907294D-01 EMin= 1.63310113D-02
 Linear search not attempted -- first point.
 Maximum step size (   0.300) exceeded in Quadratic search.
    -- Step size scaled by   0.421
 Iteration  1 RMS(Cart)=  0.06937038 RMS(Int)=  0.01207161
 Iteration  2 RMS(Cart)=  0.01684081 RMS(Int)=  0.00034725
 Iteration  3 RMS(Cart)=  0.00008506 RMS(Int)=  0.00033470
 Iteration  4 RMS(Cart)=  0.00000006 RMS(Int)=  0.00033470
 Variable       Old X    -DE/DX   Delta X   Delta X   Delta X     New X
                                 (Linear)    (Quad)   (Total)
    R1        2.25527   0.06808   0.00000   0.01911   0.01911   2.27438
    R2        2.58396   0.04167   0.00000   0.01882   0.01882   2.60278
    R3        2.50603   0.06290   0.00000   0.02591   0.02591   2.53194
    R4        2.71990   0.04272   0.00000   0.02208   0.02208   2.74198
    R5        1.82867  -0.01431   0.00000  -0.00644  -0.00654   1.82213
    R6        2.67588   0.51350   0.00000   0.26894   0.26833   2.94421
    R7        2.59782   0.14137   0.00000   0.08295   0.08369   2.68152
    R8        1.81414   0.00546   0.00000   0.00236   0.00236   1.81650
    R9        1.81414   0.06565   0.00000   0.02843   0.02843   1.84256
    A1        2.04145  -0.00159   0.00000  -0.00100  -0.00105   2.04040
    A2        2.25187  -0.00338   0.00000  -0.00213  -0.00218   2.24969
    A3        1.98987   0.00496   0.00000   0.00313   0.00309   1.99296
    A4        1.94732  -0.00353   0.00000  -0.00223  -0.00223   1.94509
    A5        1.85765   0.12638   0.00000   0.06253   0.06356   1.92120
    A6        2.42198   0.01952   0.00000   0.01265   0.01262   2.43460
    A7        1.50479   0.07219   0.00000   0.04395   0.04362   1.54840
    A8        2.41569   0.00036   0.00000   0.00864   0.00834   2.42403
    A9        2.17810  -0.02833   0.00000  -0.00862  -0.00856   2.16955
   A10        1.85256   0.06826   0.00000   0.04143   0.04163   1.89419
   A11        1.91114  -0.02177   0.00000  -0.01196  -0.01230   1.89883
    D1       -3.14131   0.00733   0.00000   0.00696   0.00697  -3.13435
    D2        0.00004  -0.00973   0.00000  -0.00927  -0.00928  -0.00924
    D3       -0.00033   0.02879   0.00000   0.00981   0.01022   0.00990
    D4        1.29660  -0.04539   0.00000  -0.02562  -0.02602   1.27058
    D5        3.14154   0.04836   0.00000   0.02843   0.02884  -3.11280
    D6       -1.84472  -0.02582   0.00000  -0.00699  -0.00741  -1.85212
    D7        1.87412  -0.02121   0.00000  -0.01379  -0.01399   1.86013
    D8       -2.39435   0.03245   0.00000   0.02482   0.02509  -2.36926
         Item               Value     Threshold  Converged?
 Maximum Force            0.513497     0.000450     NO 
 RMS     Force            0.109456     0.000300     NO 
 Maximum Displacement     0.202179     0.001800     NO 
 RMS     Displacement     0.085761     0.001200     NO 
 Predicted change in Energy=-1.578219D-01
 GradGradGradGradGradGradGradGradGradGradGradGradGradGradGradGradGradGrad

                          Input orientation:                          
 ---------------------------------------------------------------------
 Center     Atomic      Atomic             Coordinates (Angstroms)
 Number     Number       Type             X           Y           Z
 ---------------------------------------------------------------------
      1          6           0        0.122870    0.545833   -0.022479
      2          8           0       -0.914057   -0.064686    0.001611
      3          8           0        1.283266   -0.196124   -0.017848
      4          8           0        0.318770    1.871232   -0.033693
      5          1           0       -0.528333    2.331245   -0.010327
      6          9           0        2.457701    0.655719   -0.038898
      7          8           0        0.215284    3.092159    0.928606
      8          1           0        1.175426    3.114089    0.969190
      9          1           0       -0.119780    4.007784    0.920226
 ---------------------------------------------------------------------
                    Distance matrix (angstroms):
                    1          2          3          4          5
     1  C    0.000000
     2  O    1.203550   0.000000
     3  O    1.377331   2.201336   0.000000
     4  O    1.339845   2.295406   2.281330   0.000000
     5  H    1.900502   2.426811   3.109589   0.964231   0.000000
     6  F    2.337473   3.448098   1.450993   2.460188   3.424121
     7  O    2.719720   3.478564   3.584574   1.558009   1.418997
     8  H    2.947409   3.925145   3.455921   1.812272   2.115443
     9  H    3.596203   4.249676   4.530052   2.380576   1.960518
                    6          7          8          9
     6  F    0.000000
     7  O    3.449745   0.000000
     8  H    2.950263   0.961250   0.000000
     9  H    4.335858   0.975042   1.574372   0.000000
 Stoichiometry    CH3FO4
 Framework group  C1[X(CH3FO4)]
 Deg. of freedom    21
 Full point group                 C1      NOp   1
 Largest Abelian subgroup         C1      NOp   1
 Largest concise Abelian subgroup C1      NOp   1
                         Standard orientation:                         
 ---------------------------------------------------------------------
 Center     Atomic      Atomic             Coordinates (Angstroms)
 Number     Number       Type             X           Y           Z
 ---------------------------------------------------------------------
      1          6           0        0.417413    0.658803    0.055575
      2          8           0        0.634898    1.833349   -0.091651
      3          8           0        1.471268   -0.201822   -0.158324
      4          8           0       -0.729921    0.050478    0.385349
      5          1           0       -1.430903    0.703319    0.495636
      6          9           0        1.076638   -1.583741    0.041543
      7          8           0       -2.110960   -0.296577   -0.246850
      8          1           0       -1.829878   -1.214023   -0.304188
      9          1           0       -3.055713   -0.271875   -0.006978
 ---------------------------------------------------------------------
 Rotational constants (GHZ):      4.4026020      3.0844673      1.8713723
 Standard basis: 6-311G (5D, 7F)
 There are    87 symmetry adapted cartesian basis functions of A   symmetry.
 There are    87 symmetry adapted basis functions of A   symmetry.
    87 basis functions,   171 primitive gaussians,    87 cartesian basis functions
    25 alpha electrons       25 beta electrons
       nuclear repulsion energy       265.9793099236 Hartrees.
 NAtoms=    9 NActive=    9 NUniq=    9 SFac= 1.00D+00 NAtFMM=   60 NAOKFM=F Big=F
 Integral buffers will be    131072 words long.
 Raffenetti 2 integral format.
 Two-electron integral symmetry is turned on.
 One-electron integrals computed using PRISM.
 NBasis=    87 RedAO= T EigKep=  1.18D-02  NBF=    87
 NBsUse=    87 1.00D-06 EigRej= -1.00D+00 NBFU=    87
 Initial guess from the checkpoint file:  "HFCO3-h2o.chk"
 B after Tr=     0.000000    0.000000    0.000000
         Rot=    0.999795    0.000676   -0.003498    0.019935 Ang=   2.32 deg.
 ExpMin= 1.03D-01 ExpMax= 1.14D+04 ExpMxC= 1.72D+03 IAcc=1 IRadAn=         1 AccDes= 0.00D+00
 Harris functional with IExCor=  402 and IRadAn=       1 diagonalized for initial guess.
 HarFok:  IExCor=  402 AccDes= 0.00D+00 IRadAn=         1 IDoV= 1 UseB2=F ITyADJ=14
 ICtDFT=  3500011 ScaDFX=  1.000000  1.000000  1.000000  1.000000
 FoFCou: FMM=F IPFlag=           0 FMFlag=      100000 FMFlg1=           0
         NFxFlg=           0 DoJE=T BraDBF=F KetDBF=T FulRan=T
         wScrn=  0.000000 ICntrl=     500 IOpCl=  0 I1Cent=   200000004 NGrid=           0
         NMat0=    1 NMatS0=      1 NMatT0=    0 NMatD0=    1 NMtDS0=    0 NMtDT0=    0
 Petite list used in FoFCou.
 Keep R1 ints in memory in canonical form, NReq=8278097.
 Requested convergence on RMS density matrix=1.00D-08 within 128 cycles.
 Requested convergence on MAX density matrix=1.00D-06.
 Requested convergence on             energy=1.00D-06.
 No special actions if energy rises.
 Integral accuracy reduced to 1.0D-05 until final iterations.
 Initial convergence to 1.0D-05 achieved.  Increase integral accuracy.
 SCF Done:  E(RB3LYP) =  -440.319096914     A.U. after   15 cycles
            NFock= 15  Conv=0.15D-08     -V/T= 1.9985
 Calling FoFJK, ICntrl=      2127 FMM=F ISym2X=0 I1Cent= 0 IOpClX= 0 NMat=1 NMatS=1 NMatT=0.
 ***** Axes restored to original set *****
 -------------------------------------------------------------------
 Center     Atomic                   Forces (Hartrees/Bohr)
 Number     Number              X              Y              Z
 -------------------------------------------------------------------
      1        6           0.015047121    0.010757689   -0.029784469
      2        8          -0.033564285   -0.021965346    0.007502762
      3        8          -0.003021022   -0.036936084    0.008210388
      4        8           0.006279629   -0.286042196   -0.207878374
      5        1          -0.010894548   -0.024380229   -0.025993684
      6        9           0.026575086    0.019204702   -0.000766944
      7        8          -0.004723819    0.302447390    0.214421252
      8        1           0.003119341    0.008428647    0.008152488
      9        1           0.001182497    0.028485428    0.026136582
 -------------------------------------------------------------------
 Cartesian Forces:  Max     0.302447390 RMS     0.100183013

 GradGradGradGradGradGradGradGradGradGradGradGradGradGradGradGradGradGrad
 Berny optimization.
 Using GEDIIS/GDIIS optimizer.
 FormGI is forming the generalized inverse of G from B-inverse, IUseBI=4.
 Internal  Forces:  Max     0.332657191 RMS     0.070608434
 Search for a local minimum.
 Step number   2 out of a maximum of   38
 All quantities printed in internal units (Hartrees-Bohrs-Radians)
 Mixed Optimization -- RFO/linear search
 Update second derivatives using D2CorX and points    1    2
 DE= -1.43D-01 DEPred=-1.58D-01 R= 9.05D-01
 TightC=F SS=  1.41D+00  RLast= 3.04D-01 DXNew= 5.0454D-01 9.1249D-01
 Trust test= 9.05D-01 RLast= 3.04D-01 DXMaxT set to 5.05D-01
 ITU=  1  0
 Use linear search instead of GDIIS.
 Linear search step of   0.600 exceeds DXMaxT=   0.505 but not scaled.
 Quartic linear search produced a step of  2.00000.
 Iteration  1 RMS(Cart)=  0.09457578 RMS(Int)=  0.05843259
 Iteration  2 RMS(Cart)=  0.06031608 RMS(Int)=  0.01502597
 Iteration  3 RMS(Cart)=  0.02119690 RMS(Int)=  0.00238790
 Iteration  4 RMS(Cart)=  0.00011388 RMS(Int)=  0.00238481
 Iteration  5 RMS(Cart)=  0.00000071 RMS(Int)=  0.00238481
 Variable       Old X    -DE/DX   Delta X   Delta X   Delta X     New X
                                 (Linear)    (Quad)   (Total)
    R1        2.27438   0.04021   0.03822   0.00000   0.03822   2.31260
    R2        2.60278   0.02942   0.03763   0.00000   0.03763   2.64041
    R3        2.53194   0.02776   0.05182   0.00000   0.05182   2.58376
    R4        2.74198   0.03280   0.04417   0.00000   0.04417   2.78615
    R5        1.82213   0.00361  -0.01308   0.00000  -0.01237   1.80976
    R6        2.94421   0.33266   0.53665   0.00000   0.53177   3.47598
    R7        2.68152   0.09117   0.16739   0.00000   0.17289   2.85441
    R8        1.81650   0.00365   0.00472   0.00000   0.00472   1.82122
    R9        1.84256   0.02612   0.05685   0.00000   0.05685   1.89941
    A1        2.04040  -0.00355  -0.00210   0.00000  -0.00237   2.03802
    A2        2.24969   0.00079  -0.00436   0.00000  -0.00463   2.24506
    A3        1.99296   0.00260   0.00617   0.00000   0.00589   1.99885
    A4        1.94509   0.00014  -0.00446   0.00000  -0.00446   1.94063
    A5        1.92120   0.08370   0.12711   0.00000   0.13424   2.05545
    A6        2.43460   0.02042   0.02523   0.00000   0.02549   2.46009
    A7        1.54840   0.03531   0.08723   0.00000   0.08556   1.63397
    A8        2.42403   0.00517   0.01668   0.00000   0.01472   2.43875
    A9        2.16955  -0.02293  -0.01711   0.00000  -0.01727   2.15228
   A10        1.89419   0.04907   0.08326   0.00000   0.08424   1.97843
   A11        1.89883  -0.01017  -0.02461   0.00000  -0.02684   1.87199
    D1       -3.13435   0.00424   0.01393   0.00000   0.01397  -3.12037
    D2       -0.00924  -0.00497  -0.01856   0.00000  -0.01860  -0.02784
    D3        0.00990   0.02403   0.02045   0.00000   0.02351   0.03340
    D4        1.27058  -0.03214  -0.05204   0.00000  -0.05506   1.21552
    D5       -3.11280   0.03463   0.05768   0.00000   0.06069  -3.05211
    D6       -1.85212  -0.02154  -0.01481   0.00000  -0.01787  -1.86999
    D7        1.86013  -0.01319  -0.02797   0.00000  -0.02928   1.83085
    D8       -2.36926   0.01852   0.05018   0.00000   0.05169  -2.31757
         Item               Value     Threshold  Converged?
 Maximum Force            0.332657     0.000450     NO 
 RMS     Force            0.070608     0.000300     NO 
 Maximum Displacement     0.409763     0.001800     NO 
 RMS     Displacement     0.172824     0.001200     NO 
 Predicted change in Energy=-1.010070D-01
 GradGradGradGradGradGradGradGradGradGradGradGradGradGradGradGradGradGrad

                          Input orientation:                          
 ---------------------------------------------------------------------
 Center     Atomic      Atomic             Coordinates (Angstroms)
 Number     Number       Type             X           Y           Z
 ---------------------------------------------------------------------
      1          6           0        0.120625    0.427029   -0.066860
      2          8           0       -0.934656   -0.188634    0.003585
      3          8           0        1.293790   -0.331845   -0.057723
      4          8           0        0.319707    1.779455   -0.093914
      5          1           0       -0.449972    2.345206   -0.025478
      6          9           0        2.487426    0.531474   -0.118282
      7          8           0        0.195012    3.263610    0.985511
      8          1           0        1.148727    3.330926    1.106800
      9          1           0       -0.169511    4.200031    0.962749
 ---------------------------------------------------------------------
                    Distance matrix (angstroms):
                    1          2          3          4          5
     1  C    0.000000
     2  O    1.223773   0.000000
     3  O    1.397244   2.233884   0.000000
     4  O    1.367268   2.335874   2.325454   0.000000
     5  H    2.001673   2.579943   3.195050   0.957686   0.000000
     6  F    2.369663   3.499150   1.474366   2.501411   3.453483
     7  O    3.026418   3.762754   3.901659   1.839408   1.510487
     8  H    3.296527   4.236139   3.846174   2.129801   2.193066
     9  H    3.921711   4.556953   4.870371   2.686086   2.120289
                    6          7          8          9
     6  F    0.000000
     7  O    3.733375   0.000000
     8  H    3.336146   0.963751   0.000000
     9  H    4.656850   1.005126   1.585511   0.000000
 Stoichiometry    CH3FO4
 Framework group  C1[X(CH3FO4)]
 Deg. of freedom    21
 Full point group                 C1      NOp   1
 Largest Abelian subgroup         C1      NOp   1
 Largest concise Abelian subgroup C1      NOp   1
                         Standard orientation:                         
 ---------------------------------------------------------------------
 Center     Atomic      Atomic             Coordinates (Angstroms)
 Number     Number       Type             X           Y           Z
 ---------------------------------------------------------------------
      1          6           0        0.515581    0.654096    0.066426
      2          8           0        0.783479    1.835072   -0.110056
      3          8           0        1.536341   -0.266862   -0.182923
      4          8           0       -0.679828    0.093887    0.422214
      5          1           0       -1.431344    0.677495    0.530787
      6          9           0        1.073432   -1.648816    0.039951
      7          8           0       -2.364557   -0.221598   -0.245303
      8          1           0       -2.199030   -1.160391   -0.387021
      9          1           0       -3.327488   -0.126325    0.026664
 ---------------------------------------------------------------------
 Rotational constants (GHZ):      4.2322660      2.6299483      1.6764110
 Standard basis: 6-311G (5D, 7F)
 There are    87 symmetry adapted cartesian basis functions of A   symmetry.
 There are    87 symmetry adapted basis functions of A   symmetry.
    87 basis functions,   171 primitive gaussians,    87 cartesian basis functions
    25 alpha electrons       25 beta electrons
       nuclear repulsion energy       254.7169576377 Hartrees.
 NAtoms=    9 NActive=    9 NUniq=    9 SFac= 1.00D+00 NAtFMM=   60 NAOKFM=F Big=F
 Integral buffers will be    131072 words long.
 Raffenetti 2 integral format.
 Two-electron integral symmetry is turned on.
 One-electron integrals computed using PRISM.
 NBasis=    87 RedAO= T EigKep=  1.26D-02  NBF=    87
 NBsUse=    87 1.00D-06 EigRej= -1.00D+00 NBFU=    87
 Initial guess from the checkpoint file:  "HFCO3-h2o.chk"
 B after Tr=     0.000000    0.000000    0.000000
         Rot=    0.999701    0.000398   -0.006341    0.023597 Ang=   2.80 deg.
 ExpMin= 1.03D-01 ExpMax= 1.14D+04 ExpMxC= 1.72D+03 IAcc=1 IRadAn=         1 AccDes= 0.00D+00
 Harris functional with IExCor=  402 and IRadAn=       1 diagonalized for initial guess.
 HarFok:  IExCor=  402 AccDes= 0.00D+00 IRadAn=         1 IDoV= 1 UseB2=F ITyADJ=14
 ICtDFT=  3500011 ScaDFX=  1.000000  1.000000  1.000000  1.000000
 FoFCou: FMM=F IPFlag=           0 FMFlag=      100000 FMFlg1=           0
         NFxFlg=           0 DoJE=T BraDBF=F KetDBF=T FulRan=T
         wScrn=  0.000000 ICntrl=     500 IOpCl=  0 I1Cent=   200000004 NGrid=           0
         NMat0=    1 NMatS0=      1 NMatT0=    0 NMatD0=    1 NMtDS0=    0 NMtDT0=    0
 Petite list used in FoFCou.
 Keep R1 ints in memory in canonical form, NReq=8278097.
 Requested convergence on RMS density matrix=1.00D-08 within 128 cycles.
 Requested convergence on MAX density matrix=1.00D-06.
 Requested convergence on             energy=1.00D-06.
 No special actions if energy rises.
 Integral accuracy reduced to 1.0D-05 until final iterations.
 Initial convergence to 1.0D-05 achieved.  Increase integral accuracy.
 SCF Done:  E(RB3LYP) =  -440.461150786     A.U. after   15 cycles
            NFock= 15  Conv=0.51D-08     -V/T= 2.0009
 Calling FoFJK, ICntrl=      2127 FMM=F ISym2X=0 I1Cent= 0 IOpClX= 0 NMat=1 NMatS=1 NMatT=0.
 ***** Axes restored to original set *****
 -------------------------------------------------------------------
 Center     Atomic                   Forces (Hartrees/Bohr)
 Number     Number              X              Y              Z
 -------------------------------------------------------------------
      1        6          -0.013760693    0.027913211   -0.005936615
      2        8           0.003326923   -0.002814851   -0.000005098
      3        8          -0.007671516   -0.012575428    0.001823461
      4        8           0.030021112   -0.149866144   -0.078949580
      5        1          -0.014077043   -0.005195378   -0.000619139
      6        9           0.014590222    0.009200133   -0.000803061
      7        8          -0.026975274    0.154294617    0.071755404
      8        1           0.005043729   -0.005933837   -0.000886396
      9        1           0.009502540   -0.015022324    0.013621025
 -------------------------------------------------------------------
 Cartesian Forces:  Max     0.154294617 RMS     0.047767644

 GradGradGradGradGradGradGradGradGradGradGradGradGradGradGradGradGradGrad
 Berny optimization.
 Using GEDIIS/GDIIS optimizer.
 FormGI is forming the generalized inverse of G from B-inverse, IUseBI=4.
 Internal  Forces:  Max     0.122674421 RMS     0.027046513
 Search for a local minimum.
 Step number   3 out of a maximum of   38
 All quantities printed in internal units (Hartrees-Bohrs-Radians)
 Mixed Optimization -- RFO/linear search
 Update second derivatives using D2CorX and points    2    3
 ITU=  0  1  0
 Use linear search instead of GDIIS.
 Linear search step of   1.197 exceeds DXMaxT=   0.505 scaled by   0.843
 Quartic linear search produced a step of  1.68623.
 Iteration  1 RMS(Cart)=  0.12914504 RMS(Int)=  0.12452032
 Iteration  2 RMS(Cart)=  0.07400992 RMS(Int)=  0.06884714
 Iteration  3 RMS(Cart)=  0.06279289 RMS(Int)=  0.02595390
 Iteration  4 RMS(Cart)=  0.03400117 RMS(Int)=  0.01074450
 Iteration  5 RMS(Cart)=  0.00045158 RMS(Int)=  0.01074177
 Iteration  6 RMS(Cart)=  0.00003139 RMS(Int)=  0.01074176
 Iteration  7 RMS(Cart)=  0.00000356 RMS(Int)=  0.01074176
 Iteration  8 RMS(Cart)=  0.00000033 RMS(Int)=  0.01074176
 Variable       Old X    -DE/DX   Delta X   Delta X   Delta X     New X
                                 (Linear)    (Quad)   (Total)
    R1        2.31260  -0.00145   0.06444   0.00000   0.06444   2.37704
    R2        2.64041   0.00765   0.06345   0.00000   0.06345   2.70386
    R3        2.58376  -0.02108   0.08738   0.00000   0.08738   2.67115
    R4        2.78615   0.01723   0.07448   0.00000   0.07448   2.86062
    R5        1.80976   0.02084  -0.02086   0.00000  -0.00632   1.80345
    R6        3.47598   0.12267   0.89668   0.00000   0.87014   4.34612
    R7        2.85441   0.03502   0.29153   0.00000   0.31961   3.17402
    R8        1.82122   0.00447   0.00797   0.00000   0.00797   1.82919
    R9        1.89941  -0.01775   0.09586   0.00000   0.09586   1.99528
    A1        2.03802  -0.00340  -0.00400   0.00000  -0.00484   2.03318
    A2        2.24506   0.00611  -0.00781   0.00000  -0.00862   2.23644
    A3        1.99885  -0.00275   0.00994   0.00000   0.00911   2.00796
    A4        1.94063   0.00304  -0.00752   0.00000  -0.00752   1.93311
    A5        2.05545   0.02404   0.22636   0.00000   0.25267   2.30812
    A6        2.46009   0.01490   0.04298   0.00000   0.04911   2.50920
    A7        1.63397   0.00143   0.14427   0.00000   0.14017   1.77414
    A8        2.43875   0.00606   0.02483   0.00000   0.01896   2.45771
    A9        2.15228  -0.01056  -0.02912   0.00000  -0.03150   2.12078
   A10        1.97843   0.02235   0.14205   0.00000   0.14318   2.12162
   A11        1.87199   0.00228  -0.04525   0.00000  -0.05269   1.81931
    D1       -3.12037   0.00010   0.02356   0.00000   0.02366  -3.09671
    D2       -0.02784  -0.00043  -0.03136   0.00000  -0.03146  -0.05930
    D3        0.03340   0.01619   0.03964   0.00000   0.05249   0.08589
    D4        1.21552  -0.01624  -0.09284   0.00000  -0.10552   1.11001
    D5       -3.05211   0.01718   0.10234   0.00000   0.11502  -2.93709
    D6       -1.86999  -0.01525  -0.03013   0.00000  -0.04298  -1.91297
    D7        1.83085  -0.00516  -0.04937   0.00000  -0.05330   1.77755
    D8       -2.31757   0.00587   0.08715   0.00000   0.09091  -2.22667
         Item               Value     Threshold  Converged?
 Maximum Force            0.122674     0.000450     NO 
 RMS     Force            0.027047     0.000300     NO 
 Maximum Displacement     0.694762     0.001800     NO 
 RMS     Displacement     0.293818     0.001200     NO 
 Predicted change in Energy=-7.336185D-02
 GradGradGradGradGradGradGradGradGradGradGradGradGradGradGradGradGradGrad

                          Input orientation:                          
 ---------------------------------------------------------------------
 Center     Atomic      Atomic             Coordinates (Angstroms)
 Number     Number       Type             X           Y           Z
 ---------------------------------------------------------------------
      1          6           0        0.113240    0.227602   -0.139243
      2          8           0       -0.970505   -0.394482    0.004818
      3          8           0        1.306947   -0.561268   -0.138769
      4          8           0        0.319801    1.625587   -0.170558
      5          1           0       -0.268819    2.364347   -0.034436
      6          9           0        2.532306    0.319690   -0.256790
      7          8           0        0.156500    3.553278    1.073113
      8          1           0        1.078263    3.698579    1.330409
      9          1           0       -0.256586    4.523918    1.027845
 ---------------------------------------------------------------------
                    Distance matrix (angstroms):
                    1          2          3          4          5
     1  C    0.000000
     2  O    1.257873   0.000000
     3  O    1.430822   2.288061   0.000000
     4  O    1.413510   2.403398   2.399542   0.000000
     5  H    2.173162   2.846935   3.324627   0.954342   0.000000
     6  F    2.423671   3.584434   1.513777   2.570599   3.475106
     7  O    3.540029   4.242194   4.440909   2.299865   1.679619
     8  H    3.890865   4.765269   4.511881   2.669356   2.336152
     9  H    4.467348   5.074142   5.446534   3.188842   2.406727
                    6          7          8          9
     6  F    0.000000
     7  O    4.227196   0.000000
     8  H    4.006286   0.967967   0.000000
     9  H    5.206125   1.055855   1.598296   0.000000
 Stoichiometry    CH3FO4
 Framework group  C1[X(CH3FO4)]
 Deg. of freedom    21
 Full point group                 C1      NOp   1
 Largest Abelian subgroup         C1      NOp   1
 Largest concise Abelian subgroup C1      NOp   1
                         Standard orientation:                         
 ---------------------------------------------------------------------
 Center     Atomic      Atomic             Coordinates (Angstroms)
 Number     Number       Type             X           Y           Z
 ---------------------------------------------------------------------
      1          6           0        0.651724    0.656144    0.083441
      2          8           0        0.952017    1.858594   -0.131457
      3          8           0        1.658858   -0.316024   -0.212907
      4          8           0       -0.602811    0.123173    0.457735
      5          1           0       -1.463666    0.521533    0.562649
      6          9           0        1.140940   -1.717095    0.032614
      7          8           0       -2.779184   -0.157462   -0.230760
      8          1           0       -2.777159   -1.083463   -0.512678
      9          1           0       -3.769024    0.012674    0.094970
 ---------------------------------------------------------------------
 Rotational constants (GHZ):      4.0147576      2.0450053      1.3990847
 Standard basis: 6-311G (5D, 7F)
 There are    87 symmetry adapted cartesian basis functions of A   symmetry.
 There are    87 symmetry adapted basis functions of A   symmetry.
    87 basis functions,   171 primitive gaussians,    87 cartesian basis functions
    25 alpha electrons       25 beta electrons
       nuclear repulsion energy       239.5482918577 Hartrees.
 NAtoms=    9 NActive=    9 NUniq=    9 SFac= 1.00D+00 NAtFMM=   60 NAOKFM=F Big=F
 Integral buffers will be    131072 words long.
 Raffenetti 2 integral format.
 Two-electron integral symmetry is turned on.
 One-electron integrals computed using PRISM.
 NBasis=    87 RedAO= T EigKep=  1.36D-02  NBF=    87
 NBsUse=    87 1.00D-06 EigRej= -1.00D+00 NBFU=    87
 Initial guess from the checkpoint file:  "HFCO3-h2o.chk"
 B after Tr=     0.000000    0.000000    0.000000
         Rot=    0.999808   -0.001604   -0.008426    0.017618 Ang=  -2.25 deg.
 ExpMin= 1.03D-01 ExpMax= 1.14D+04 ExpMxC= 1.72D+03 IAcc=1 IRadAn=         1 AccDes= 0.00D+00
 Harris functional with IExCor=  402 and IRadAn=       1 diagonalized for initial guess.
 HarFok:  IExCor=  402 AccDes= 0.00D+00 IRadAn=         1 IDoV= 1 UseB2=F ITyADJ=14
 ICtDFT=  3500011 ScaDFX=  1.000000  1.000000  1.000000  1.000000
 FoFCou: FMM=F IPFlag=           0 FMFlag=      100000 FMFlg1=           0
         NFxFlg=           0 DoJE=T BraDBF=F KetDBF=T FulRan=T
         wScrn=  0.000000 ICntrl=     500 IOpCl=  0 I1Cent=   200000004 NGrid=           0
         NMat0=    1 NMatS0=      1 NMatT0=    0 NMatD0=    1 NMtDS0=    0 NMtDT0=    0
 Petite list used in FoFCou.
 Keep R1 ints in memory in canonical form, NReq=8278097.
 Requested convergence on RMS density matrix=1.00D-08 within 128 cycles.
 Requested convergence on MAX density matrix=1.00D-06.
 Requested convergence on             energy=1.00D-06.
 No special actions if energy rises.
 Integral accuracy reduced to 1.0D-05 until final iterations.
 Initial convergence to 1.0D-05 achieved.  Increase integral accuracy.
 SCF Done:  E(RB3LYP) =  -440.508534089     A.U. after   16 cycles
            NFock= 16  Conv=0.38D-08     -V/T= 2.0029
 Calling FoFJK, ICntrl=      2127 FMM=F ISym2X=0 I1Cent= 0 IOpClX= 0 NMat=1 NMatS=1 NMatT=0.
 ***** Axes restored to original set *****
 -------------------------------------------------------------------
 Center     Atomic                   Forces (Hartrees/Bohr)
 Number     Number              X              Y              Z
 -------------------------------------------------------------------
      1        6          -0.046674169    0.040139772    0.018017911
      2        8           0.049155658    0.021431420   -0.010650536
      3        8          -0.012390170    0.017636737   -0.003684088
      4        8           0.045706499   -0.105090673   -0.026032355
      5        1          -0.023916567    0.010046721    0.017580518
      6        9          -0.002342318   -0.003147186    0.000029250
      7        8          -0.033737659    0.082179442    0.001230746
      8        1           0.006634968   -0.010118093   -0.000824340
      9        1           0.017563759   -0.053078139    0.004332895
 -------------------------------------------------------------------
 Cartesian Forces:  Max     0.105090673 RMS     0.035263316

 GradGradGradGradGradGradGradGradGradGradGradGradGradGradGradGradGradGrad
 Berny optimization.
 Using GEDIIS/GDIIS optimizer.
 FormGI is forming the generalized inverse of G from B-inverse, IUseBI=4.
 Internal  Forces:  Max     0.073355198 RMS     0.022701618
 Search for a local minimum.
 Step number   4 out of a maximum of   38
 All quantities printed in internal units (Hartrees-Bohrs-Radians)
 Mixed Optimization -- RFO/linear search
 Update second derivatives using D2CorX and points    3    4
 ITU=  0  0  1  0
 Use linear search instead of GDIIS.
     Eigenvalues ---    0.01212   0.02123   0.02576   0.02669   0.04614
     Eigenvalues ---    0.06448   0.11972   0.15932   0.16142   0.16767
     Eigenvalues ---    0.24480   0.24936   0.25000   0.25073   0.39780
     Eigenvalues ---    0.49378   0.51764   0.55468   0.55819   0.61823
     Eigenvalues ---    1.09004
 RFO step:  Lambda=-2.74362127D-02 EMin= 1.21231790D-02
 Quartic linear search produced a step of -0.10331.
 Iteration  1 RMS(Cart)=  0.08634482 RMS(Int)=  0.00865841
 Iteration  2 RMS(Cart)=  0.00761358 RMS(Int)=  0.00403299
 Iteration  3 RMS(Cart)=  0.00017534 RMS(Int)=  0.00403198
 Iteration  4 RMS(Cart)=  0.00000508 RMS(Int)=  0.00403198
 Iteration  5 RMS(Cart)=  0.00000014 RMS(Int)=  0.00403198
 Variable       Old X    -DE/DX   Delta X   Delta X   Delta X     New X
                                 (Linear)    (Quad)   (Total)
    R1        2.37704  -0.05417  -0.00666  -0.03888  -0.04554   2.33150
    R2        2.70386  -0.02028  -0.00656  -0.02765  -0.03420   2.66966
    R3        2.67115  -0.07336  -0.00903  -0.10121  -0.11024   2.56091
    R4        2.86062  -0.00373  -0.00769   0.00104  -0.00665   2.85397
    R5        1.80345   0.02726   0.00065   0.04239   0.04956   1.85300
    R6        4.34612   0.01574  -0.08990   0.12489   0.02933   4.37545
    R7        3.17402   0.00341  -0.03302   0.00575  -0.02324   3.15078
    R8        1.82919   0.00458  -0.00082   0.00835   0.00753   1.83672
    R9        1.99528  -0.05585  -0.00990  -0.08263  -0.09254   1.90274
    A1        2.03318  -0.00196   0.00050  -0.00521  -0.00631   2.02687
    A2        2.23644   0.01222   0.00089   0.04409   0.04339   2.27982
    A3        2.00796  -0.00969  -0.00094  -0.02895  -0.03149   1.97647
    A4        1.93311   0.00337   0.00078   0.01174   0.01251   1.94563
    A5        2.30812  -0.02244  -0.02610  -0.12383  -0.14734   2.16078
    A6        2.50920   0.00978  -0.00507   0.03102   0.02404   2.53324
    A7        1.77414  -0.01184  -0.01448  -0.03872  -0.04268   1.73146
    A8        2.45771   0.00263  -0.00196   0.00019  -0.00771   2.45000
    A9        2.12078   0.00154   0.00325  -0.00355  -0.01304   2.10774
   A10        2.12162   0.00377  -0.01479   0.05916   0.04893   2.17055
   A11        1.81931   0.01032   0.00544   0.06000   0.06290   1.88221
    D1       -3.09671  -0.00342  -0.00244  -0.05464  -0.05579   3.13069
    D2       -0.05930   0.00261   0.00325   0.04023   0.04219  -0.01711
    D3        0.08589   0.01195  -0.00542   0.15613   0.15112   0.23701
    D4        1.11001  -0.00707   0.01090  -0.06357  -0.05197   1.05803
    D5       -2.93709   0.00633  -0.01188   0.05243   0.03985  -2.89724
    D6       -1.91297  -0.01269   0.00444  -0.16727  -0.16324  -2.07622
    D7        1.77755  -0.00173   0.00551  -0.02219  -0.01765   1.75990
    D8       -2.22667   0.00182  -0.00939   0.03242   0.02524  -2.20142
         Item               Value     Threshold  Converged?
 Maximum Force            0.073355     0.000450     NO 
 RMS     Force            0.022702     0.000300     NO 
 Maximum Displacement     0.258776     0.001800     NO 
 RMS     Displacement     0.090767     0.001200     NO 
 Predicted change in Energy=-1.604510D-02
 GradGradGradGradGradGradGradGradGradGradGradGradGradGradGradGradGradGrad

                          Input orientation:                          
 ---------------------------------------------------------------------
 Center     Atomic      Atomic             Coordinates (Angstroms)
 Number     Number       Type             X           Y           Z
 ---------------------------------------------------------------------
      1          6           0        0.113670    0.263142   -0.111320
      2          8           0       -0.951427   -0.355320   -0.038697
      3          8           0        1.286008   -0.522365   -0.177549
      4          8           0        0.360754    1.595447   -0.131538
      5          1           0       -0.304049    2.277191    0.102502
      6          9           0        2.523100    0.338029   -0.278586
      7          8           0        0.146879    3.585374    1.032706
      8          1           0        1.050199    3.657806    1.384071
      9          1           0       -0.213987    4.517948    0.914799
 ---------------------------------------------------------------------
                    Distance matrix (angstroms):
                    1          2          3          4          5
     1  C    0.000000
     2  O    1.233776   0.000000
     3  O    1.412722   2.247955   0.000000
     4  O    1.355173   2.352856   2.311566   0.000000
     5  H    2.067994   2.714618   3.231752   0.980567   0.000000
     6  F    2.416389   3.551143   1.510258   2.505686   3.449398
     7  O    3.513847   4.228859   4.431235   2.315387   1.667321
     8  H    3.825837   4.704887   4.468567   2.650610   2.320023
     9  H    4.389038   5.020131   5.371030   3.156923   2.385149
                    6          7          8          9
     6  F    0.000000
     7  O    4.232158   0.000000
     8  H    3.994345   0.971952   0.000000
     9  H    5.136881   1.006887   1.599446   0.000000
 Stoichiometry    CH3FO4
 Framework group  C1[X(CH3FO4)]
 Deg. of freedom    21
 Full point group                 C1      NOp   1
 Largest Abelian subgroup         C1      NOp   1
 Largest concise Abelian subgroup C1      NOp   1
                         Standard orientation:                         
 ---------------------------------------------------------------------
 Center     Atomic      Atomic             Coordinates (Angstroms)
 Number     Number       Type             X           Y           Z
 ---------------------------------------------------------------------
      1          6           0        0.622934    0.655536    0.047455
      2          8           0        0.940858    1.838617   -0.098992
      3          8           0        1.640362   -0.295880   -0.187982
      4          8           0       -0.561597    0.096786    0.395566
      5          1           0       -1.413167    0.582893    0.401879
      6          9           0        1.142811   -1.704235    0.035314
      7          8           0       -2.788572   -0.153089   -0.186808
      8          1           0       -2.748190   -1.041902   -0.578051
      9          1           0       -3.709961   -0.027558    0.199335
 ---------------------------------------------------------------------
 Rotational constants (GHZ):      4.1425522      2.0774965      1.4174995
 Standard basis: 6-311G (5D, 7F)
 There are    87 symmetry adapted cartesian basis functions of A   symmetry.
 There are    87 symmetry adapted basis functions of A   symmetry.
    87 basis functions,   171 primitive gaussians,    87 cartesian basis functions
    25 alpha electrons       25 beta electrons
       nuclear repulsion energy       242.9928376780 Hartrees.
 NAtoms=    9 NActive=    9 NUniq=    9 SFac= 1.00D+00 NAtFMM=   60 NAOKFM=F Big=F
 Integral buffers will be    131072 words long.
 Raffenetti 2 integral format.
 Two-electron integral symmetry is turned on.
 One-electron integrals computed using PRISM.
 NBasis=    87 RedAO= T EigKep=  1.27D-02  NBF=    87
 NBsUse=    87 1.00D-06 EigRej= -1.00D+00 NBFU=    87
 Initial guess from the checkpoint file:  "HFCO3-h2o.chk"
 B after Tr=     0.000000    0.000000    0.000000
         Rot=    0.999997   -0.001732   -0.001510   -0.001142 Ang=  -0.29 deg.
 ExpMin= 1.03D-01 ExpMax= 1.14D+04 ExpMxC= 1.72D+03 IAcc=1 IRadAn=         1 AccDes= 0.00D+00
 Harris functional with IExCor=  402 and IRadAn=       1 diagonalized for initial guess.
 HarFok:  IExCor=  402 AccDes= 0.00D+00 IRadAn=         1 IDoV= 1 UseB2=F ITyADJ=14
 ICtDFT=  3500011 ScaDFX=  1.000000  1.000000  1.000000  1.000000
 FoFCou: FMM=F IPFlag=           0 FMFlag=      100000 FMFlg1=           0
         NFxFlg=           0 DoJE=T BraDBF=F KetDBF=T FulRan=T
         wScrn=  0.000000 ICntrl=     500 IOpCl=  0 I1Cent=   200000004 NGrid=           0
         NMat0=    1 NMatS0=      1 NMatT0=    0 NMatD0=    1 NMtDS0=    0 NMtDT0=    0
 Petite list used in FoFCou.
 Keep R1 ints in memory in canonical form, NReq=8278097.
 Requested convergence on RMS density matrix=1.00D-08 within 128 cycles.
 Requested convergence on MAX density matrix=1.00D-06.
 Requested convergence on             energy=1.00D-06.
 No special actions if energy rises.
 Integral accuracy reduced to 1.0D-05 until final iterations.
 Initial convergence to 1.0D-05 achieved.  Increase integral accuracy.
 SCF Done:  E(RB3LYP) =  -440.529256549     A.U. after   14 cycles
            NFock= 14  Conv=0.32D-08     -V/T= 2.0024
 Calling FoFJK, ICntrl=      2127 FMM=F ISym2X=0 I1Cent= 0 IOpClX= 0 NMat=1 NMatS=1 NMatT=0.
 ***** Axes restored to original set *****
 -------------------------------------------------------------------
 Center     Atomic                   Forces (Hartrees/Bohr)
 Number     Number              X              Y              Z
 -------------------------------------------------------------------
      1        6          -0.016730823    0.021820673    0.002075149
      2        8           0.017967757    0.007856489   -0.000643712
      3        8          -0.002269817    0.001365089   -0.001499183
      4        8           0.012165305   -0.047057072   -0.014758389
      5        1           0.000381152    0.000849860    0.009624200
      6        9          -0.000990210   -0.001835712    0.000433318
      7        8          -0.018369927    0.052393723    0.002152939
      8        1          -0.000923860   -0.007449033   -0.002737242
      9        1           0.008770424   -0.027944016    0.005352919
 -------------------------------------------------------------------
 Cartesian Forces:  Max     0.052393723 RMS     0.017073135

 GradGradGradGradGradGradGradGradGradGradGradGradGradGradGradGradGradGrad
 Berny optimization.
 Using GEDIIS/GDIIS optimizer.
 FormGI is forming the generalized inverse of G from B-inverse, IUseBI=4.
 Internal  Forces:  Max     0.029654189 RMS     0.009861424
 Search for a local minimum.
 Step number   5 out of a maximum of   38
 All quantities printed in internal units (Hartrees-Bohrs-Radians)
 Mixed Optimization -- RFO/linear search
 Update second derivatives using D2CorX and points    4    5
 DE= -2.07D-02 DEPred=-1.60D-02 R= 1.29D+00
 TightC=F SS=  1.41D+00  RLast= 3.48D-01 DXNew= 8.4853D-01 1.0448D+00
 Trust test= 1.29D+00 RLast= 3.48D-01 DXMaxT set to 8.49D-01
 ITU=  1  0  0  1  0
 Use linear search instead of GDIIS.
     Eigenvalues ---    0.01243   0.02124   0.02616   0.02669   0.04160
     Eigenvalues ---    0.05368   0.12004   0.15176   0.16131   0.17487
     Eigenvalues ---    0.24362   0.24893   0.25002   0.26703   0.39654
     Eigenvalues ---    0.42334   0.50234   0.52553   0.55732   0.59228
     Eigenvalues ---    1.05672
 RFO step:  Lambda=-6.05006239D-03 EMin= 1.24290742D-02
 Quartic linear search produced a step of  0.49786.
 Iteration  1 RMS(Cart)=  0.08268486 RMS(Int)=  0.00607298
 Iteration  2 RMS(Cart)=  0.00432879 RMS(Int)=  0.00449302
 Iteration  3 RMS(Cart)=  0.00003662 RMS(Int)=  0.00449296
 Iteration  4 RMS(Cart)=  0.00000055 RMS(Int)=  0.00449296
 Variable       Old X    -DE/DX   Delta X   Delta X   Delta X     New X
                                 (Linear)    (Quad)   (Total)
    R1        2.33150  -0.01949  -0.02267  -0.00781  -0.03048   2.30101
    R2        2.66966  -0.00240  -0.01703   0.00865  -0.00838   2.66128
    R3        2.56091  -0.02834  -0.05488  -0.02614  -0.08103   2.47988
    R4        2.85397  -0.00189  -0.00331  -0.00086  -0.00417   2.84980
    R5        1.85300   0.00571   0.02467  -0.00571   0.02628   1.87928
    R6        4.37545   0.01620   0.01460   0.12201   0.12980   4.50524
    R7        3.15078   0.00067  -0.01157  -0.01519  -0.02134   3.12944
    R8        1.83672  -0.00240   0.00375  -0.00845  -0.00470   1.83202
    R9        1.90274  -0.02965  -0.04607  -0.03999  -0.08606   1.81668
    A1        2.02687  -0.00453  -0.00314  -0.02311  -0.02736   1.99951
    A2        2.27982   0.00062   0.02160  -0.01417   0.00635   2.28617
    A3        1.97647   0.00391  -0.01568   0.03670   0.01993   1.99640
    A4        1.94563   0.00267   0.00623   0.00950   0.01573   1.96136
    A5        2.16078  -0.00173  -0.07335   0.01771  -0.05098   2.10980
    A6        2.53324  -0.00334   0.01197  -0.02841  -0.02084   2.51240
    A7        1.73146  -0.00362  -0.02125  -0.00254  -0.01312   1.71834
    A8        2.45000   0.00058  -0.00384  -0.00074  -0.01062   2.43937
    A9        2.10774  -0.00628  -0.00649  -0.04291  -0.06358   2.04415
   A10        2.17055   0.00457   0.02436   0.03491   0.06294   2.23349
   A11        1.88221   0.00424   0.03131   0.01424   0.04166   1.92386
    D1        3.13069   0.00009  -0.02778   0.07812   0.05074  -3.10176
    D2       -0.01711   0.00078   0.02100  -0.00840   0.01221  -0.00490
    D3        0.23701   0.00647   0.07524  -0.02819   0.04638   0.28339
    D4        1.05803  -0.00737  -0.02588  -0.13950  -0.16434   0.89369
    D5       -2.89724   0.00567   0.01984   0.07415   0.09295  -2.80429
    D6       -2.07622  -0.00817  -0.08127  -0.03715  -0.11777  -2.19398
    D7        1.75990  -0.00110  -0.00879   0.01605   0.00698   1.76688
    D8       -2.20142   0.00191   0.01257   0.03992   0.05523  -2.14620
         Item               Value     Threshold  Converged?
 Maximum Force            0.029654     0.000450     NO 
 RMS     Force            0.009861     0.000300     NO 
 Maximum Displacement     0.198969     0.001800     NO 
 RMS     Displacement     0.084524     0.001200     NO 
 Predicted change in Energy=-7.190756D-03
 GradGradGradGradGradGradGradGradGradGradGradGradGradGradGradGradGradGrad

                          Input orientation:                          
 ---------------------------------------------------------------------
 Center     Atomic      Atomic             Coordinates (Angstroms)
 Number     Number       Type             X           Y           Z
 ---------------------------------------------------------------------
      1          6           0        0.131284    0.295858   -0.129684
      2          8           0       -0.927770   -0.290285    0.002595
      3          8           0        1.258135   -0.544109   -0.218821
      4          8           0        0.408516    1.578369   -0.150337
      5          1           0       -0.246234    2.247604    0.184934
      6          9           0        2.546241    0.232739   -0.326084
      7          8           0        0.107051    3.634637    1.017860
      8          1           0        0.975611    3.684182    1.445655
      9          1           0       -0.241689    4.518256    0.870269
 ---------------------------------------------------------------------
                    Distance matrix (angstroms):
                    1          2          3          4          5
     1  C    0.000000
     2  O    1.217644   0.000000
     3  O    1.408290   2.211704   0.000000
     4  O    1.312296   2.302372   2.287238   0.000000
     5  H    2.012665   2.634126   3.196843   0.994475   0.000000
     6  F    2.423752   3.528504   1.508050   2.532089   3.481198
     7  O    3.530566   4.184093   4.507360   2.384073   1.656031
     8  H    3.830839   4.636989   4.552883   2.702450   2.268497
     9  H    4.355188   4.934129   5.391023   3.179204   2.371827
                    6          7          8          9
     6  F    0.000000
     7  O    4.396447   0.000000
     8  H    4.185499   0.969463   0.000000
     9  H    5.250664   0.961345   1.583845   0.000000
 Stoichiometry    CH3FO4
 Framework group  C1[X(CH3FO4)]
 Deg. of freedom    21
 Full point group                 C1      NOp   1
 Largest Abelian subgroup         C1      NOp   1
 Largest concise Abelian subgroup C1      NOp   1
                         Standard orientation:                         
 ---------------------------------------------------------------------
 Center     Atomic      Atomic             Coordinates (Angstroms)
 Number     Number       Type             X           Y           Z
 ---------------------------------------------------------------------
      1          6           0        0.566206    0.658966    0.069387
      2          8           0        0.789251    1.842780   -0.108069
      3          8           0        1.666751   -0.186452   -0.170098
      4          8           0       -0.539042    0.030616    0.394543
      5          1           0       -1.423881    0.476224    0.308093
      6          9           0        1.321647   -1.643303    0.010738
      7          8           0       -2.840315   -0.237931   -0.167443
      8          1           0       -2.772510   -1.076637   -0.648935
      9          1           0       -3.708836   -0.155762    0.236418
 ---------------------------------------------------------------------
 Rotational constants (GHZ):      4.2915576      2.0029934      1.3974673
 Standard basis: 6-311G (5D, 7F)
 There are    87 symmetry adapted cartesian basis functions of A   symmetry.
 There are    87 symmetry adapted basis functions of A   symmetry.
    87 basis functions,   171 primitive gaussians,    87 cartesian basis functions
    25 alpha electrons       25 beta electrons
       nuclear repulsion energy       243.8947221284 Hartrees.
 NAtoms=    9 NActive=    9 NUniq=    9 SFac= 1.00D+00 NAtFMM=   60 NAOKFM=F Big=F
 Integral buffers will be    131072 words long.
 Raffenetti 2 integral format.
 Two-electron integral symmetry is turned on.
 One-electron integrals computed using PRISM.
 NBasis=    87 RedAO= T EigKep=  1.19D-02  NBF=    87
 NBsUse=    87 1.00D-06 EigRej= -1.00D+00 NBFU=    87
 Initial guess from the checkpoint file:  "HFCO3-h2o.chk"
 B after Tr=     0.000000    0.000000    0.000000
         Rot=    0.999628   -0.004697   -0.001926   -0.026787 Ang=  -3.12 deg.
 ExpMin= 1.03D-01 ExpMax= 1.14D+04 ExpMxC= 1.72D+03 IAcc=1 IRadAn=         1 AccDes= 0.00D+00
 Harris functional with IExCor=  402 and IRadAn=       1 diagonalized for initial guess.
 HarFok:  IExCor=  402 AccDes= 0.00D+00 IRadAn=         1 IDoV= 1 UseB2=F ITyADJ=14
 ICtDFT=  3500011 ScaDFX=  1.000000  1.000000  1.000000  1.000000
 FoFCou: FMM=F IPFlag=           0 FMFlag=      100000 FMFlg1=           0
         NFxFlg=           0 DoJE=T BraDBF=F KetDBF=T FulRan=T
         wScrn=  0.000000 ICntrl=     500 IOpCl=  0 I1Cent=   200000004 NGrid=           0
         NMat0=    1 NMatS0=      1 NMatT0=    0 NMatD0=    1 NMtDS0=    0 NMtDT0=    0
 Petite list used in FoFCou.
 Keep R1 ints in memory in canonical form, NReq=8278097.
 Requested convergence on RMS density matrix=1.00D-08 within 128 cycles.
 Requested convergence on MAX density matrix=1.00D-06.
 Requested convergence on             energy=1.00D-06.
 No special actions if energy rises.
 Integral accuracy reduced to 1.0D-05 until final iterations.
 Initial convergence to 1.0D-05 achieved.  Increase integral accuracy.
 SCF Done:  E(RB3LYP) =  -440.536531838     A.U. after   14 cycles
            NFock= 14  Conv=0.60D-08     -V/T= 2.0019
 Calling FoFJK, ICntrl=      2127 FMM=F ISym2X=0 I1Cent= 0 IOpClX= 0 NMat=1 NMatS=1 NMatT=0.
 ***** Axes restored to original set *****
 -------------------------------------------------------------------
 Center     Atomic                   Forces (Hartrees/Bohr)
 Number     Number              X              Y              Z
 -------------------------------------------------------------------
      1        6           0.000028983   -0.000072143    0.007018559
      2        8          -0.008001487   -0.004662451   -0.000815582
      3        8           0.002378060   -0.004604072   -0.003753654
      4        8           0.006693189   -0.003364638   -0.008205591
      5        1           0.008559955    0.002846237    0.003115986
      6        9          -0.000379744    0.000825713   -0.000083870
      7        8          -0.004561256    0.007843554    0.005098308
      8        1          -0.000667458   -0.004676550   -0.002250739
      9        1          -0.004050243    0.005864350   -0.000123417
 -------------------------------------------------------------------
 Cartesian Forces:  Max     0.008559955 RMS     0.004628873

 GradGradGradGradGradGradGradGradGradGradGradGradGradGradGradGradGradGrad
 Berny optimization.
 Using GEDIIS/GDIIS optimizer.
 FormGI is forming the generalized inverse of G from B-inverse, IUseBI=4.
 Internal  Forces:  Max     0.013852000 RMS     0.005132762
 Search for a local minimum.
 Step number   6 out of a maximum of   38
 All quantities printed in internal units (Hartrees-Bohrs-Radians)
 Mixed Optimization -- RFO/linear search
 Update second derivatives using D2CorX and points    5    6
 DE= -7.28D-03 DEPred=-7.19D-03 R= 1.01D+00
 TightC=F SS=  1.41D+00  RLast= 3.24D-01 DXNew= 1.4270D+00 9.7205D-01
 Trust test= 1.01D+00 RLast= 3.24D-01 DXMaxT set to 9.72D-01
 ITU=  1  1  0  0  1  0
 Use linear search instead of GDIIS.
     Eigenvalues ---    0.01244   0.02124   0.02468   0.02756   0.03830
     Eigenvalues ---    0.05086   0.10668   0.14409   0.16125   0.16951
     Eigenvalues ---    0.22638   0.24979   0.25272   0.25986   0.39750
     Eigenvalues ---    0.49977   0.52380   0.54870   0.56098   0.63944
     Eigenvalues ---    1.10089
 RFO step:  Lambda=-5.53484704D-03 EMin= 1.24430019D-02
 Quartic linear search produced a step of  0.16681.
 Iteration  1 RMS(Cart)=  0.10796645 RMS(Int)=  0.00971513
 Iteration  2 RMS(Cart)=  0.01439865 RMS(Int)=  0.00220335
 Iteration  3 RMS(Cart)=  0.00019884 RMS(Int)=  0.00219982
 Iteration  4 RMS(Cart)=  0.00000081 RMS(Int)=  0.00219982
 Variable       Old X    -DE/DX   Delta X   Delta X   Delta X     New X
                                 (Linear)    (Quad)   (Total)
    R1        2.30101   0.00911  -0.00508   0.00463  -0.00045   2.30056
    R2        2.66128   0.00410  -0.00140   0.00755   0.00615   2.66743
    R3        2.47988   0.00962  -0.01352   0.00030  -0.01322   2.46666
    R4        2.84980   0.00011  -0.00070   0.00266   0.00196   2.85176
    R5        1.87928  -0.00352   0.00438  -0.00006   0.00787   1.88716
    R6        4.50524   0.01385   0.02165   0.14231   0.16027   4.66551
    R7        3.12944  -0.00460  -0.00356  -0.02750  -0.02765   3.10179
    R8        1.83202  -0.00183  -0.00078  -0.00297  -0.00376   1.82826
    R9        1.81668   0.00688  -0.01436  -0.00016  -0.01451   1.80217
    A1        1.99951  -0.00077  -0.00456  -0.00543  -0.01379   1.98572
    A2        2.28617  -0.00011   0.00106   0.00660   0.00381   2.28998
    A3        1.99640   0.00107   0.00332   0.00623   0.00574   2.00215
    A4        1.96136  -0.00256   0.00262  -0.00931  -0.00669   1.95467
    A5        2.10980   0.00655  -0.00850   0.02081   0.01522   2.12502
    A6        2.51240  -0.00948  -0.00348  -0.03723  -0.04340   2.46899
    A7        1.71834  -0.00105  -0.00219   0.00427   0.00519   1.72354
    A8        2.43937   0.00017  -0.00177  -0.00438  -0.00857   2.43080
    A9        2.04415  -0.00640  -0.01061  -0.05204  -0.06675   1.97740
   A10        2.23349   0.00181   0.01050   0.03433   0.04657   2.28005
   A11        1.92386   0.00165   0.00695   0.02212   0.02798   1.95184
    D1       -3.10176  -0.00201   0.00846  -0.08304  -0.07397   3.10746
    D2       -0.00490   0.00172   0.00204   0.06758   0.06901   0.06411
    D3        0.28339   0.00394   0.00774   0.10472   0.11243   0.39582
    D4        0.89369  -0.00244  -0.02741  -0.03523  -0.06246   0.83123
    D5       -2.80429  -0.00055   0.01551  -0.07640  -0.06108  -2.86536
    D6       -2.19398  -0.00693  -0.01964  -0.21635  -0.23597  -2.42995
    D7        1.76688   0.00002   0.00116   0.04642   0.04757   1.81445
    D8       -2.14620   0.00180   0.00921   0.09465   0.10472  -2.04147
         Item               Value     Threshold  Converged?
 Maximum Force            0.013852     0.000450     NO 
 RMS     Force            0.005133     0.000300     NO 
 Maximum Displacement     0.259064     0.001800     NO 
 RMS     Displacement     0.118166     0.001200     NO 
 Predicted change in Energy=-3.403503D-03
 GradGradGradGradGradGradGradGradGradGradGradGradGradGradGradGradGradGrad

                          Input orientation:                          
 ---------------------------------------------------------------------
 Center     Atomic      Atomic             Coordinates (Angstroms)
 Number     Number       Type             X           Y           Z
 ---------------------------------------------------------------------
      1          6           0        0.158795    0.287506   -0.077930
      2          8           0       -0.929376   -0.252715    0.000276
      3          8           0        1.226714   -0.611559   -0.286948
      4          8           0        0.491654    1.549018   -0.117993
      5          1           0       -0.109143    2.262676    0.238405
      6          9           0        2.548584    0.103284   -0.424804
      7          8           0        0.057140    3.697928    1.017243
      8          1           0        0.878328    3.765205    1.524326
      9          1           0       -0.311548    4.555909    0.823813
 ---------------------------------------------------------------------
                    Distance matrix (angstroms):
                    1          2          3          4          5
     1  C    0.000000
     2  O    1.217403   0.000000
     3  O    1.411544   2.204539   0.000000
     4  O    1.305302   2.297729   2.288439   0.000000
     5  H    2.018206   2.656441   3.212746   0.998641   0.000000
     6  F    2.421848   3.521879   1.509087   2.532832   3.488027
     7  O    3.583394   4.197025   4.651934   2.468882   1.641398
     8  H    3.896068   4.661996   4.749542   2.785357   2.210494
     9  H    4.387896   4.917600   5.504795   3.251696   2.375413
                    6          7          8          9
     6  F    0.000000
     7  O    4.605242   0.000000
     8  H    4.471971   0.967475   0.000000
     9  H    5.437395   0.953666   1.591143   0.000000
 Stoichiometry    CH3FO4
 Framework group  C1[X(CH3FO4)]
 Deg. of freedom    21
 Full point group                 C1      NOp   1
 Largest Abelian subgroup         C1      NOp   1
 Largest concise Abelian subgroup C1      NOp   1
                         Standard orientation:                         
 ---------------------------------------------------------------------
 Center     Atomic      Atomic             Coordinates (Angstroms)
 Number     Number       Type             X           Y           Z
 ---------------------------------------------------------------------
      1          6           0        0.526752    0.646210    0.016865
      2          8           0        0.684122    1.850659   -0.064437
      3          8           0        1.716460   -0.095463   -0.147369
      4          8           0       -0.518924   -0.064389    0.341556
      5          1           0       -1.446205    0.297047    0.259109
      6          9           0        1.483918   -1.578446    0.007647
      7          8           0       -2.931842   -0.278856   -0.135106
      8          1           0       -2.900530   -1.060531   -0.704326
      9          1           0       -3.767564   -0.203361    0.318049
 ---------------------------------------------------------------------
 Rotational constants (GHZ):      4.4770778      1.8788705      1.3463011
 Standard basis: 6-311G (5D, 7F)
 There are    87 symmetry adapted cartesian basis functions of A   symmetry.
 There are    87 symmetry adapted basis functions of A   symmetry.
    87 basis functions,   171 primitive gaussians,    87 cartesian basis functions
    25 alpha electrons       25 beta electrons
       nuclear repulsion energy       242.5653152986 Hartrees.
 NAtoms=    9 NActive=    9 NUniq=    9 SFac= 1.00D+00 NAtFMM=   60 NAOKFM=F Big=F
 Integral buffers will be    131072 words long.
 Raffenetti 2 integral format.
 Two-electron integral symmetry is turned on.
 One-electron integrals computed using PRISM.
 NBasis=    87 RedAO= T EigKep=  1.18D-02  NBF=    87
 NBsUse=    87 1.00D-06 EigRej= -1.00D+00 NBFU=    87
 Initial guess from the checkpoint file:  "HFCO3-h2o.chk"
 B after Tr=     0.000000    0.000000    0.000000
         Rot=    0.999782   -0.007396   -0.001732   -0.019457 Ang=  -2.39 deg.
[...]
                                                    112(v),67(r),81(r),121(r)
                                                    122(r),70(r),82(r),68(r)
                                                    80(r)
    96. RY*(   1) O   7                  0.00033     1.08526   
    97. RY*(   2) O   7                  0.00010     1.68329   
    98. RY*(   3) O   7                  0.00008     0.92038   
    99. RY*(   4) O   7                  0.00006     1.56958   
   100. RY*(   5) O   7                  0.00000    49.64502   
   101. RY*(   6) O   7                  0.00000     4.92916   
   102. RY*(   7) O   7                  0.00000     5.09308   
   103. RY*(   8) O   7                  0.00000     4.67850   
   104. RY*(   9) O   7                  0.00000     2.61249   
   105. RY*(  10) O   7                  0.00000     2.71486   
   106. RY*(  11) O   7                  0.00000     2.91786   
   107. RY*(  12) O   7                  0.00000     3.18098   
   108. RY*(  13) O   7                  0.00001     3.12499   
   109. RY*(   1) H   8                  0.00213     0.67415   
   110. RY*(   2) H   8                  0.00130     1.46498   
   111. RY*(   3) H   8                  0.00048     1.77539   
   112. RY*(   4) H   8                  0.00022     1.63723   
   113. RY*(   5) H   8                  0.00001     2.50087   
   114. RY*(   1) H   9                  0.00363     0.45054   
   115. RY*(   2) H   9                  0.00116     1.47437   
   116. RY*(   3) H   9                  0.00088     2.03885   
   117. RY*(   4) H   9                  0.00032     1.85159   
   118. RY*(   5) H   9                  0.00001     2.48422   
   125. BD*(   1) O   7 - H   8          0.00374     0.38140   
   126. BD*(   1) O   7 - H   9          0.00580     0.37938   
       -------------------------------
              Total Lewis    9.91887  ( 99.7961%)
        Valence non-Lewis    0.00954  (  0.0960%)
        Rydberg non-Lewis    0.01073  (  0.1079%)
       -------------------------------
            Total unit  2    9.93914  (100.0000%)
           Charge unit  2    0.06086
 1\1\GINC-INDIO\SP\RB3LYP\6-311G(d,p)\C1H3F1O4\SARARIOP\23-Jun-2017\0\\
 # B3LYP/6-311G** geom=check guess=read pop=nboread\\Title Card Require
 d\\0,1\C,0,0.3732681829,0.7305229807,-0.0285401267\O,0,-0.823502592,0.
 927360781,0.1943631559\O,0,0.6762290437,-0.5532008686,-0.5114783251\O,
 0,1.394420274,1.5536269537,0.1238482456\H,0,1.0602628902,2.4507784562,
 0.4771198584\F,0,2.1511606203,-0.7032699545,-0.7542897966\O,0,0.020324
 9491,3.4874260363,0.9699927187\H,0,0.0133924392,4.3977029997,1.2873877
 874\H,0,-0.8544093674,3.0663046155,0.9379847024\\Version=AM64L-G09RevD
 .01\State=1-A\HF=-440.6775504\RMSD=7.285e-09\Dipole=-0.3587347,1.78346
 43,0.6645241\Quadrupole=-4.126768,5.3436958,-1.2169278,-2.5271333,-0.6
 446067,2.9932154\PG=C01 [X(C1H3F1O4)]\\@


 NATURE REVEALS EVERY SECRET ONCE.
                    - RALPH WALDO EMERSON
 Job cpu time:       0 days  0 hours  1 minutes 17.4 seconds.
 File lengths (MBytes):  RWF=      8 Int=      0 D2E=      0 Chk=      4 Scr=      1
 Normal termination of Gaussian 09 at Fri Jun 23 05:46:09 2017.
 Initial command:
 /usr/local/gaussian/gaussian09.d1/g09/l1.exe "/scratch/sarariop/HFCO3-h2o.com/Gau-32328.inp" -scrdir="/scratch/sarariop/HFCO3-h2o.com/"
 Default is to use a total of  10 processors:
                               10 via shared-memory
                                1 via Linda
 Entering Link 1 = /usr/local/gaussian/gaussian09.d1/g09/l1.exe PID=      3750.
  
 Copyright (c) 1988,1990,1992,1993,1995,1998,2003,2009,2013,
            Gaussian, Inc.  All Rights Reserved.
  
 This is part of the Gaussian(R) 09 program.  It is based on
 the Gaussian(R) 03 system (copyright 2003, Gaussian, Inc.),
 the Gaussian(R) 98 system (copyright 1998, Gaussian, Inc.),
 the Gaussian(R) 94 system (copyright 1995, Gaussian, Inc.),
 the Gaussian 92(TM) system (copyright 1992, Gaussian, Inc.),
 the Gaussian 90(TM) system (copyright 1990, Gaussian, Inc.),
 the Gaussian 88(TM) system (copyright 1988, Gaussian, Inc.),
 the Gaussian 86(TM) system (copyright 1986, Carnegie Mellon
 University), and the Gaussian 82(TM) system (copyright 1983,
 Carnegie Mellon University). Gaussian is a federally registered
 trademark of Gaussian, Inc.
  
 This software contains proprietary and confidential information,
 including trade secrets, belonging to Gaussian, Inc.
  
 This software is provided under written license and may be
 used, copied, transmitted, or stored only in accord with that
 written license.
  
 The following legend is applicable only to US Government
 contracts under FAR:
  
                    RESTRICTED RIGHTS LEGEND
  
 Use, reproduction and disclosure by the US Government is
 subject to restrictions as set forth in subparagraphs (a)
 and (c) of the Commercial Computer Software - Restricted
 Rights clause in FAR 52.227-19.
  
 Gaussian, Inc.
 340 Quinnipiac St., Bldg. 40, Wallingford CT 06492
  
  
 ---------------------------------------------------------------
 Warning -- This program may not be used in any manner that
 competes with the business of Gaussian, Inc. or will provide
 assistance to any competitor of Gaussian, Inc.  The licensee
 of this program is prohibited from giving any competitor of
 Gaussian, Inc. access to this program.  By using this program,
 the user acknowledges that Gaussian, Inc. is engaged in the
 business of creating and licensing software in the field of
 computational chemistry and represents and warrants to the
 licensee that it is not a competitor of Gaussian, Inc. and that
 it will not use this program in any manner prohibited above.
 ---------------------------------------------------------------
  

 Cite this work as:
 Gaussian 09, Revision D.01,
 M. J. Frisch, G. W. Trucks, H. B. Schlegel, G. E. Scuseria, 
 M. A. Robb, J. R. Cheeseman, G. Scalmani, V. Barone, B. Mennucci, 
 G. A. Petersson, H. Nakatsuji, M. Caricato, X. Li, H. P. Hratchian, 
 A. F. Izmaylov, J. Bloino, G. Zheng, J. L. Sonnenberg, M. Hada, 
 M. Ehara, K. Toyota, R. Fukuda, J. Hasegawa, M. Ishida, T. Nakajima, 
 Y. Honda, O. Kitao, H. Nakai, T. Vreven, J. A. Montgomery, Jr., 
 J. E. Peralta, F. Ogliaro, M. Bearpark, J. J. Heyd, E. Brothers, 
 K. N. Kudin, V. N. Staroverov, T. Keith, R. Kobayashi, J. Normand, 
 K. Raghavachari, A. Rendell, J. C. Burant, S. S. Iyengar, J. Tomasi, 
 M. Cossi, N. Rega, J. M. Millam, M. Klene, J. E. Knox, J. B. Cross, 
 V. Bakken, C. Adamo, J. Jaramillo, R. Gomperts, R. E. Stratmann, 
 O. Yazyev, A. J. Austin, R. Cammi, C. Pomelli, J. W. Ochterski, 
 R. L. Martin, K. Morokuma, V. G. Zakrzewski, G. A. Voth, 
 P. Salvador, J. J. Dannenberg, S. Dapprich, A. D. Daniels, 
 O. Farkas, J. B. Foresman, J. V. Ortiz, J. Cioslowski, 
 and D. J. Fox, Gaussian, Inc., Wallingford CT, 2013.
 
 ******************************************
 Gaussian 09:  AM64L-G09RevD.01 24-Apr-2013
                23-Jun-2017 
 ******************************************
 %chk=HFCO3-h2o.chk
 Default route:  MaxDisk=70GB
 -------------------------------------------------
 # B3LYP/6-311G** geom=check guess=read output=wfx
 -------------------------------------------------
 1/29=2,38=1/1;
 2/12=2,40=1/2;
 3/5=4,6=6,7=101,11=2,14=-4,16=1,25=1,30=1,74=-5,116=-2/1,2,3;
 4/5=1/1;
 5/5=2,38=6/2;
 6/7=2,8=2,9=2,10=2,28=1/1;
 99/5=1,6=200,9=1/99;
 -------------------
 Title Card Required
 -------------------
 Structure from the checkpoint file:  "HFCO3-h2o.chk"
 Charge =  0 Multiplicity = 1
 Redundant internal coordinates found in file.
 C,0,0.3732681829,0.7305229807,-0.0285401267
 O,0,-0.823502592,0.927360781,0.1943631559
 O,0,0.6762290437,-0.5532008686,-0.5114783251
 O,0,1.394420274,1.5536269537,0.1238482456
 H,0,1.0602628902,2.4507784562,0.4771198584
 F,0,2.1511606203,-0.7032699545,-0.7542897966
 O,0,0.0203249491,3.4874260363,0.9699927187
 H,0,0.0133924392,4.3977029997,1.2873877874
 H,0,-0.8544093674,3.0663046155,0.9379847024
 Recover connectivity data from disk.
                          Input orientation:                          
 ---------------------------------------------------------------------
 Center     Atomic      Atomic             Coordinates (Angstroms)
 Number     Number       Type             X           Y           Z
 ---------------------------------------------------------------------
      1          6           0        0.373268    0.730523   -0.028540
      2          8           0       -0.823503    0.927361    0.194363
      3          8           0        0.676229   -0.553201   -0.511478
      4          8           0        1.394420    1.553627    0.123848
      5          1           0        1.060263    2.450778    0.477120
      6          9           0        2.151161   -0.703270   -0.754290
      7          8           0        0.020325    3.487426    0.969993
      8          1           0        0.013392    4.397703    1.287388
      9          1           0       -0.854409    3.066305    0.937985
 ---------------------------------------------------------------------
                    Distance matrix (angstroms):
                    1          2          3          4          5
     1  C    0.000000
     2  O    1.233163   0.000000
     3  O    1.404621   2.222492   0.000000
     4  O    1.320407   2.305724   2.314770   0.000000
     5  H    1.920139   2.439124   3.185702   1.020462   0.000000
     6  F    2.396534   3.522431   1.502299   2.537196   3.557309
     7  O    2.953329   2.804921   4.353347   2.518666   1.548881
     8  H    3.912721   3.733413   5.309117   3.368951   2.354355
     9  H    2.810203   2.264732   4.188629   2.829885   2.063308
                    6          7          8          9
     6  F    0.000000
     7  O    5.007549   0.000000
     8  H    5.895628   0.964050   0.000000
     9  H    5.109495   0.971354   1.627201   0.000000
 Stoichiometry    CH3FO4
 Framework group  C1[X(CH3FO4)]
 Deg. of freedom    21
 Full point group                 C1      NOp   1
 Largest Abelian subgroup         C1      NOp   1
 Largest concise Abelian subgroup C1      NOp   1
                         Standard orientation:                         
 ---------------------------------------------------------------------
 Center     Atomic      Atomic             Coordinates (Angstroms)
 Number     Number       Type             X           Y           Z
 ---------------------------------------------------------------------
      1          6           0        0.178870    0.361228   -0.000001
      2          8           0       -0.512885    1.382093    0.000017
      3          8           0        1.564411    0.591960   -0.000060
      4          8           0       -0.203096   -0.902725    0.000018
      5          1           0       -1.222389   -0.951558    0.000136
      6          9           0        2.326216   -0.702858   -0.000002
      7          8           0       -2.672622   -0.407632    0.000214
      8          1           0       -3.569113   -0.762164   -0.001480
      9          1           0       -2.624115    0.562510   -0.000141
 ---------------------------------------------------------------------
 Rotational constants (GHZ):      7.8304594      1.7930452      1.4589662
 Standard basis: 6-311G(d,p) (5D, 7F)
 There are   132 symmetry adapted cartesian basis functions of A   symmetry.
 There are   126 symmetry adapted basis functions of A   symmetry.
   126 basis functions,   216 primitive gaussians,   132 cartesian basis functions
    25 alpha electrons       25 beta electrons
       nuclear repulsion energy       248.8443019649 Hartrees.
 NAtoms=    9 NActive=    9 NUniq=    9 SFac= 1.00D+00 NAtFMM=   60 NAOKFM=F Big=F
 Integral buffers will be    131072 words long.
 Raffenetti 2 integral format.
 Two-electron integral symmetry is turned on.
 One-electron integrals computed using PRISM.
 NBasis=   126 RedAO= T EigKep=  7.94D-03  NBF=   126
 NBsUse=   126 1.00D-06 EigRej= -1.00D+00 NBFU=   126
 Initial guess from the checkpoint file:  "HFCO3-h2o.chk"
 B after Tr=     0.000000    0.000000    0.000000
         Rot=    1.000000    0.000000    0.000000    0.000000 Ang=   0.00 deg.
 Keep R1 ints in memory in canonical form, NReq=33261373.
 Requested convergence on RMS density matrix=1.00D-08 within 128 cycles.
 Requested convergence on MAX density matrix=1.00D-06.
 Requested convergence on             energy=1.00D-06.
 No special actions if energy rises.
 SCF Done:  E(RB3LYP) =  -440.677550429     A.U. after    1 cycles
            NFock=  1  Conv=0.17D-08     -V/T= 2.0030

 **********************************************************************

            Population analysis using the SCF density.

 **********************************************************************

 Orbital symmetries:
       Occupied  (A) (A) (A) (A) (A) (A) (A) (A) (A) (A) (A) (A)
                 (A) (A) (A) (A) (A) (A) (A) (A) (A) (A) (A) (A)
                 (A)
       Virtual   (A) (A) (A) (A) (A) (A) (A) (A) (A) (A) (A) (A)
                 (A) (A) (A) (A) (A) (A) (A) (A) (A) (A) (A) (A)
                 (A) (A) (A) (A) (A) (A) (A) (A) (A) (A) (A) (A)
                 (A) (A) (A) (A) (A) (A) (A) (A) (A) (A) (A) (A)
                 (A) (A) (A) (A) (A) (A) (A) (A) (A) (A) (A) (A)
                 (A) (A) (A) (A) (A) (A) (A) (A) (A) (A) (A) (A)
                 (A) (A) (A) (A) (A) (A) (A) (A) (A) (A) (A) (A)
                 (A) (A) (A) (A) (A) (A) (A) (A) (A) (A) (A) (A)
                 (A) (A) (A) (A) (A)
 The electronic state is 1-A.
 Alpha  occ. eigenvalues --  -24.70947 -19.26078 -19.17905 -19.16774 -19.13950
 Alpha  occ. eigenvalues --  -10.37761  -1.22967  -1.13317  -1.06227  -1.04813
 Alpha  occ. eigenvalues --   -0.99867  -0.65804  -0.59935  -0.58598  -0.51671
 Alpha  occ. eigenvalues --   -0.50740  -0.48339  -0.45649  -0.43877  -0.40407
 Alpha  occ. eigenvalues --   -0.39350  -0.36723  -0.35307  -0.32915  -0.32400
 Alpha virt. eigenvalues --   -0.11018   0.00015   0.00536   0.08427   0.10365
 Alpha virt. eigenvalues --    0.18430   0.24947   0.30479   0.33762   0.36279
 Alpha virt. eigenvalues --    0.38406   0.42286   0.42509   0.48792   0.55266
 Alpha virt. eigenvalues --    0.68294   0.70504   0.73676   0.77630   0.78928
 Alpha virt. eigenvalues --    0.79315   0.81993   0.84082   0.86801   0.89967
 Alpha virt. eigenvalues --    0.92217   0.99853   1.00729   1.08284   1.16764
 Alpha virt. eigenvalues --    1.19469   1.19964   1.22664   1.25855   1.33068
 Alpha virt. eigenvalues --    1.37489   1.37950   1.43087   1.48554   1.53370
 Alpha virt. eigenvalues --    1.55937   1.60677   1.63406   1.70656   1.76384
 Alpha virt. eigenvalues --    1.86653   1.92329   1.99278   2.19938   2.34693
 Alpha virt. eigenvalues --    2.36913   2.45707   2.54998   2.71927   2.73396
 Alpha virt. eigenvalues --    2.74723   2.78380   2.79504   2.87837   2.93964
 Alpha virt. eigenvalues --    3.00703   3.02262   3.08823   3.12188   3.14121
 Alpha virt. eigenvalues --    3.24588   3.31443   3.31722   3.43019   3.53363
 Alpha virt. eigenvalues --    3.65663   3.66637   3.76872   3.78018   3.79528
 Alpha virt. eigenvalues --    3.80391   3.81683   3.89334   3.92184   4.13191
 Alpha virt. eigenvalues --    4.68406   4.72436   4.77789   4.86535   4.91327
 Alpha virt. eigenvalues --    4.95640   5.08256   5.14683   5.35087   5.60383
 Alpha virt. eigenvalues --    5.66378   5.76386   6.01503   6.09069   6.16914
 Alpha virt. eigenvalues --   23.61401  49.70385  49.79297  49.85792  49.91786
 Alpha virt. eigenvalues --   66.61610
          Condensed to atoms (all electrons):
               1          2          3          4          5          6
     1  C    4.263099   0.597498   0.255146   0.392071  -0.029583  -0.020181
     2  O    0.597498   7.869281  -0.049977  -0.065770   0.001003   0.001028
     3  O    0.255146  -0.049977   7.896205  -0.056406   0.000887   0.054127
     4  O    0.392071  -0.065770  -0.056406   7.780833   0.305227  -0.000328
     5  H   -0.029583   0.001003   0.000887   0.305227   0.334238  -0.000026
     6  F   -0.020181   0.001028   0.054127  -0.000328  -0.000026   9.105003
     7  O   -0.004511  -0.005433  -0.000053  -0.036712   0.081918   0.000000
     8  H    0.000626  -0.000130   0.000008   0.001710  -0.005135   0.000000
     9  H    0.000119   0.024412   0.000403   0.001600  -0.011433  -0.000018
               7          8          9
     1  C   -0.004511   0.000626   0.000119
     2  O   -0.005433  -0.000130   0.024412
     3  O   -0.000053   0.000008   0.000403
     4  O   -0.036712   0.001710   0.001600
     5  H    0.081918  -0.005135  -0.011433
     6  F    0.000000   0.000000  -0.000018
     7  O    7.865731   0.318924   0.305533
     8  H    0.318924   0.410236  -0.017362
     9  H    0.305533  -0.017362   0.397009
 Mulliken charges:
               1
     1  C    0.545716
     2  O   -0.371912
     3  O   -0.100340
     4  O   -0.322226
     5  H    0.322903
     6  F   -0.139606
     7  O   -0.525398
     8  H    0.291124
     9  H    0.299738
 Sum of Mulliken charges =   0.00000
 Mulliken charges with hydrogens summed into heavy atoms:
               1
     1  C    0.545716
     2  O   -0.371912
     3  O   -0.100340
     4  O    0.000678
     6  F   -0.139606
     7  O    0.065464
 Electronic spatial extent (au):  <R**2>=            717.1454
 Charge=              0.0000 electrons
 Dipole moment (field-independent basis, Debye):
    X=             -4.8282    Y=             -0.9599    Z=             -0.0037  Tot=              4.9227
 Quadrupole moment (field-independent basis, Debye-Ang):
   XX=            -20.7492   YY=            -35.9431   ZZ=            -33.0651
   XY=              2.4396   XZ=              0.0139   YZ=              0.0024
 Traceless Quadrupole moment (field-independent basis, Debye-Ang):
   XX=              9.1699   YY=             -6.0240   ZZ=             -3.1460
   XY=              2.4396   XZ=              0.0139   YZ=              0.0024
 Octapole moment (field-independent basis, Debye-Ang**2):
  XXX=            -61.9395  YYY=            -10.4423  ZZZ=             -0.0016  XYY=             -3.0831
  XXY=             -7.8250  XXZ=             -0.0495  XZZ=              3.4347  YZZ=             -0.8974
  YYZ=             -0.0024  XYZ=             -0.0092
 Hexadecapole moment (field-independent basis, Debye-Ang**3):
 XXXX=           -341.0553 YYYY=           -159.6013 ZZZZ=            -23.9202 XXXY=             25.1321
 XXXZ=              0.1790 YYYX=              1.1119 YYYZ=              0.0021 ZZZX=              0.0061
 ZZZY=              0.0012 XXYY=           -101.5934 XXZZ=           -102.9503 YYZZ=            -30.0654
 XXYZ=              0.0341 YYXZ=              0.0092 ZZXY=             -2.2413
 N-N= 2.488443019649D+02 E-N=-1.541185130094D+03  KE= 4.393621812482D+02
 1\1\GINC-INDIO\SP\RB3LYP\6-311G(d,p)\C1H3F1O4\SARARIOP\23-Jun-2017\0\\
 # B3LYP/6-311G** geom=check guess=read output=wfx\\Title Card Required
 \\0,1\C,0,0.3732681829,0.7305229807,-0.0285401267\O,0,-0.823502592,0.9
 27360781,0.1943631559\O,0,0.6762290437,-0.5532008686,-0.5114783251\O,0
 ,1.394420274,1.5536269537,0.1238482456\H,0,1.0602628902,2.4507784562,0
 .4771198584\F,0,2.1511606203,-0.7032699545,-0.7542897966\O,0,0.0203249
 491,3.4874260363,0.9699927187\H,0,0.0133924392,4.3977029997,1.28738778
 74\H,0,-0.8544093674,3.0663046155,0.9379847024\\Version=AM64L-G09RevD.
 01\State=1-A\HF=-440.6775504\RMSD=1.743e-09\Dipole=-0.3587339,1.783464
 ,0.6645239\Quadrupole=-4.1267689,5.3436965,-1.2169275,-2.5271346,-0.64
 4607,2.9932158\PG=C01 [X(C1H3F1O4)]\\@

 Writing a WFNX file to "HFCO3-h2o.wfx"


 I DON'T PRETEND TO UNDERSTAND THE UNIVERSE --
 IT'S A GREAT DEAL BIGGER THAN I AM.
       -- ATTR. TO WILLIAM ALLINGHAM (1828-89)
 Job cpu time:       0 days  0 hours  0 minutes 18.2 seconds.
 File lengths (MBytes):  RWF=      8 Int=      0 D2E=      0 Chk=      4 Scr=      1
 Normal termination of Gaussian 09 at Fri Jun 23 05:46:11 2017.
