 Entering Gaussian System, Link 0=g09
 Initial command:
 /usr/local/gaussian/gaussian09.d1/g09/l1.exe "/scratch/sarariop/HFSO4-h2o.com/Gau-20289.inp" -scrdir="/scratch/sarariop/HFSO4-h2o.com/"
 Default is to use a total of   8 processors:
                                8 via shared-memory
                                1 via Linda
 Entering Link 1 = /usr/local/gaussian/gaussian09.d1/g09/l1.exe PID=     20291.
  
 Copyright (c) 1988,1990,1992,1993,1995,1998,2003,2009,2013,
            Gaussian, Inc.  All Rights Reserved.
  
 This is part of the Gaussian(R) 09 program.  It is based on
 the Gaussian(R) 03 system (copyright 2003, Gaussian, Inc.),
 the Gaussian(R) 98 system (copyright 1998, Gaussian, Inc.),
 the Gaussian(R) 94 system (copyright 1995, Gaussian, Inc.),
 the Gaussian 92(TM) system (copyright 1992, Gaussian, Inc.),
 the Gaussian 90(TM) system (copyright 1990, Gaussian, Inc.),
 the Gaussian 88(TM) system (copyright 1988, Gaussian, Inc.),
 the Gaussian 86(TM) system (copyright 1986, Carnegie Mellon
 University), and the Gaussian 82(TM) system (copyright 1983,
 Carnegie Mellon University). Gaussian is a federally registered
 trademark of Gaussian, Inc.
  
 This software contains proprietary and confidential information,
 including trade secrets, belonging to Gaussian, Inc.
  
 This software is provided under written license and may be
 used, copied, transmitted, or stored only in accord with that
 written license.
  
 The following legend is applicable only to US Government
 contracts under FAR:
  
                    RESTRICTED RIGHTS LEGEND
  
 Use, reproduction and disclosure by the US Government is
 subject to restrictions as set forth in subparagraphs (a)
 and (c) of the Commercial Computer Software - Restricted
 Rights clause in FAR 52.227-19.
  
 Gaussian, Inc.
 340 Quinnipiac St., Bldg. 40, Wallingford CT 06492
  
  
 ---------------------------------------------------------------
 Warning -- This program may not be used in any manner that
 competes with the business of Gaussian, Inc. or will provide
 assistance to any competitor of Gaussian, Inc.  The licensee
 of this program is prohibited from giving any competitor of
 Gaussian, Inc. access to this program.  By using this program,
 the user acknowledges that Gaussian, Inc. is engaged in the
 business of creating and licensing software in the field of
 computational chemistry and represents and warrants to the
 licensee that it is not a competitor of Gaussian, Inc. and that
 it will not use this program in any manner prohibited above.
 ---------------------------------------------------------------
  

 Cite this work as:
 Gaussian 09, Revision D.01,
 M. J. Frisch, G. W. Trucks, H. B. Schlegel, G. E. Scuseria, 
 M. A. Robb, J. R. Cheeseman, G. Scalmani, V. Barone, B. Mennucci, 
 G. A. Petersson, H. Nakatsuji, M. Caricato, X. Li, H. P. Hratchian, 
 A. F. Izmaylov, J. Bloino, G. Zheng, J. L. Sonnenberg, M. Hada, 
 M. Ehara, K. Toyota, R. Fukuda, J. Hasegawa, M. Ishida, T. Nakajima, 
 Y. Honda, O. Kitao, H. Nakai, T. Vreven, J. A. Montgomery, Jr., 
 J. E. Peralta, F. Ogliaro, M. Bearpark, J. J. Heyd, E. Brothers, 
 K. N. Kudin, V. N. Staroverov, T. Keith, R. Kobayashi, J. Normand, 
 K. Raghavachari, A. Rendell, J. C. Burant, S. S. Iyengar, J. Tomasi, 
 M. Cossi, N. Rega, J. M. Millam, M. Klene, J. E. Knox, J. B. Cross, 
 V. Bakken, C. Adamo, J. Jaramillo, R. Gomperts, R. E. Stratmann, 
 O. Yazyev, A. J. Austin, R. Cammi, C. Pomelli, J. W. Ochterski, 
 R. L. Martin, K. Morokuma, V. G. Zakrzewski, G. A. Voth, 
 P. Salvador, J. J. Dannenberg, S. Dapprich, A. D. Daniels, 
 O. Farkas, J. B. Foresman, J. V. Ortiz, J. Cioslowski, 
 and D. J. Fox, Gaussian, Inc., Wallingford CT, 2013.
 
 ******************************************
 Gaussian 09:  AM64L-G09RevD.01 24-Apr-2013
                21-Jun-2017 
 ******************************************
 %chk=HFSO4-h2o.chk
 Default route:  MaxDisk=56GB
 -----------------------------------------
 # opt freq b3lyp/6-311g geom=connectivity
 -----------------------------------------
 1/14=-1,18=20,19=15,26=3,38=1,57=2/1,3;
 2/9=110,12=2,17=6,18=5,40=1/2;
 3/5=4,6=6,11=2,16=1,25=1,30=1,71=1,74=-5/1,2,3;
 4//1;
 5/5=2,38=5/2;
 6/7=2,8=2,9=2,10=2,28=1/1;
 7//1,2,3,16;
 1/14=-1,18=20,19=15,26=3/3(2);
 2/9=110/2;
 99//99;
 2/9=110/2;
 3/5=4,6=6,11=2,16=1,25=1,30=1,71=1,74=-5/1,2,3;
 4/5=5,16=3,69=1/1;
 5/5=2,38=5/2;
 7//1,2,3,16;
 1/14=-1,18=20,19=15,26=3/3(-5);
 2/9=110/2;
 6/7=2,8=2,9=2,10=2,19=2,28=1/1;
 99/9=1/99;
 -------------------
 Title Card Required
 -------------------
 Symbolic Z-matrix:
 Charge =  0 Multiplicity = 1
 S                    -2.08995  -0.90829   0. 
 O                    -2.17811  -1.58942  -1.25879 
 O                    -2.17551  -1.58933   1.25902 
 O                    -3.06166   0.37986   0.0008 
 H                    -2.56701   1.21494   0.00149 
 O                    -0.69778   0.10471  -0.0014 
 F                     0.43168  -0.75958  -0.00022 
 O                    -1.86067   2.76014  -0.00006 
 H                    -0.90067   2.76014  -0.00006 
 H                    -2.18112   3.66508  -0.00006 
 
 Add virtual bond connecting atoms F7         and O6         Dist= 2.69D+00.
 Add virtual bond connecting atoms O8         and H5         Dist= 3.21D+00.

 GradGradGradGradGradGradGradGradGradGradGradGradGradGradGradGradGradGrad
 Berny optimization.
 Initialization pass.
                           ----------------------------
                           !    Initial Parameters    !
                           ! (Angstroms and Degrees)  !
 --------------------------                            --------------------------
 ! Name  Definition              Value          Derivative Info.                !
 --------------------------------------------------------------------------------
 ! R1    R(1,2)                  1.434          estimate D2E/DX2                !
 ! R2    R(1,3)                  1.434          estimate D2E/DX2                !
 ! R3    R(1,4)                  1.6136         estimate D2E/DX2                !
 ! R4    R(1,6)                  1.7217         estimate D2E/DX2                !
 ! R5    R(4,5)                  0.9706         estimate D2E/DX2                !
 ! R6    R(5,8)                  1.699          estimate D2E/DX2                !
 ! R7    R(6,7)                  1.4222         estimate D2E/DX2                !
 ! R8    R(8,9)                  0.96           estimate D2E/DX2                !
 ! R9    R(8,10)                 0.96           estimate D2E/DX2                !
 ! A1    A(2,1,3)              122.7845         estimate D2E/DX2                !
 ! A2    A(2,1,4)              110.036          estimate D2E/DX2                !
 ! A3    A(2,1,6)              109.1759         estimate D2E/DX2                !
 ! A4    A(3,1,4)              110.0466         estimate D2E/DX2                !
 ! A5    A(3,1,6)              109.1715         estimate D2E/DX2                !
 ! A6    A(4,1,6)               90.9879         estimate D2E/DX2                !
 ! A7    A(1,4,5)              112.3308         estimate D2E/DX2                !
 ! A8    A(1,6,7)              106.5344         estimate D2E/DX2                !
 ! A9    A(5,8,9)              114.5658         estimate D2E/DX2                !
 ! A10   A(5,8,10)             135.9341         estimate D2E/DX2                !
 ! A11   A(9,8,10)             109.5            estimate D2E/DX2                !
 ! A12   L(4,5,8,6,-1)         186.0742         estimate D2E/DX2                !
 ! A13   L(4,5,8,6,-2)         179.8981         estimate D2E/DX2                !
 ! D1    D(2,1,4,5)           -110.9319         estimate D2E/DX2                !
 ! D2    D(3,1,4,5)            110.771          estimate D2E/DX2                !
 ! D3    D(6,1,4,5)             -0.0789         estimate D2E/DX2                !
 ! D4    D(2,1,6,7)            -68.4501         estimate D2E/DX2                !
 ! D5    D(3,1,6,7)             68.2575         estimate D2E/DX2                !
 ! D6    D(4,1,6,7)            179.909          estimate D2E/DX2                !
 ! D7    D(1,4,8,9)             -0.0498         estimate D2E/DX2                !
 ! D8    D(1,4,8,10)           179.977          estimate D2E/DX2                !
 ! D9    D(5,8,9,10)          -179.9424         estimate D2E/DX2                !
 --------------------------------------------------------------------------------
 Trust Radius=3.00D-01 FncErr=1.00D-07 GrdErr=1.00D-06
 Number of steps in this run=     41 maximum allowed number of steps=    100.
 GradGradGradGradGradGradGradGradGradGradGradGradGradGradGradGradGradGrad

                          Input orientation:                          
 ---------------------------------------------------------------------
 Center     Atomic      Atomic             Coordinates (Angstroms)
 Number     Number       Type             X           Y           Z
 ---------------------------------------------------------------------
      1         16           0       -2.089947   -0.908289    0.000000
      2          8           0       -2.178108   -1.589415   -1.258793
      3          8           0       -2.175514   -1.589330    1.259024
      4          8           0       -3.061661    0.379859    0.000796
      5          1           0       -2.567005    1.214939    0.001493
      6          8           0       -0.697777    0.104711   -0.001399
      7          9           0        0.431679   -0.759584   -0.000217
      8          8           0       -1.860670    2.760141   -0.000059
      9          1           0       -0.900670    2.760141   -0.000059
     10          1           0       -2.181125    3.665077   -0.000059
 ---------------------------------------------------------------------
                    Distance matrix (angstroms):
                    1          2          3          4          5
     1  S    0.000000
     2  O    1.433968   0.000000
     3  O    1.433973   2.517818   0.000000
     4  O    1.613553   2.499054   2.499220   0.000000
     5  H    2.176163   3.099026   3.098157   0.970589   0.000000
     6  O    1.721717   2.577301   2.577236   2.379844   2.174081
     7  F    2.526007   3.013905   3.011913   3.674474   3.590383
     8  O    3.675588   4.539143   4.538978   2.666106   1.698988
     9  H    3.856392   4.704774   4.704085   3.214907   2.272515
    10  H    4.574275   5.403157   5.403158   3.401177   2.480339
                    6          7          8          9         10
     6  O    0.000000
     7  F    1.422209   0.000000
     8  O    2.898902   4.200396   0.000000
     9  H    2.663171   3.763459   0.960000   0.000000
    10  H    3.857010   5.138518   0.960000   1.567952   0.000000
 Stoichiometry    FH3O5S
 Framework group  C1[X(FH3O5S)]
 Deg. of freedom    24
 Full point group                 C1      NOp   1
 Largest Abelian subgroup         C1      NOp   1
 Largest concise Abelian subgroup C1      NOp   1
                         Standard orientation:                         
 ---------------------------------------------------------------------
 Center     Atomic      Atomic             Coordinates (Angstroms)
 Number     Number       Type             X           Y           Z
 ---------------------------------------------------------------------
      1         16           0        0.689325   -0.440404    0.000059
      2          8           0        1.364047   -0.568681   -1.258734
      3          8           0        1.364115   -0.566086    1.259083
      4          8           0       -0.654021   -1.334258    0.000855
      5          1           0       -1.458394   -0.791095    0.001552
      6          8           0       -0.239594    1.009223   -0.001340
      7          9           0        0.689966    2.085603   -0.000158
      8          8           0       -2.959133    0.005361    0.000000
      9          1           0       -2.902375    0.963682    0.000000
     10          1           0       -3.881432   -0.261030    0.000000
 ---------------------------------------------------------------------
 Rotational constants (GHZ):      2.5762362      1.6432766      1.2561783
 Standard basis: 6-311G (5D, 7F)
 There are   108 symmetry adapted cartesian basis functions of A   symmetry.
 There are   108 symmetry adapted basis functions of A   symmetry.
   108 basis functions,   211 primitive gaussians,   108 cartesian basis functions
    34 alpha electrons       34 beta electrons
       nuclear repulsion energy       457.4909092987 Hartrees.



 Warning!  S  atom    1 may be hypervalent but has no d functions.



 NAtoms=   10 NActive=   10 NUniq=   10 SFac= 1.00D+00 NAtFMM=   60 NAOKFM=F Big=F
 Integral buffers will be    131072 words long.
 Raffenetti 2 integral format.
 Two-electron integral symmetry is turned on.
 One-electron integrals computed using PRISM.
 NBasis=   108 RedAO= T EigKep=  7.87D-03  NBF=   108
 NBsUse=   108 1.00D-06 EigRej= -1.00D+00 NBFU=   108
 ExpMin= 7.71D-02 ExpMax= 9.34D+04 ExpMxC= 3.17D+03 IAcc=2 IRadAn=         4 AccDes= 0.00D+00
 Harris functional with IExCor=  402 and IRadAn=       4 diagonalized for initial guess.
 HarFok:  IExCor=  402 AccDes= 0.00D+00 IRadAn=         4 IDoV= 1 UseB2=F ITyADJ=14
 ICtDFT=  3500011 ScaDFX=  1.000000  1.000000  1.000000  1.000000
 FoFCou: FMM=F IPFlag=           0 FMFlag=      100000 FMFlg1=           0
         NFxFlg=           0 DoJE=T BraDBF=F KetDBF=T FulRan=T
         wScrn=  0.000000 ICntrl=     500 IOpCl=  0 I1Cent=   200000004 NGrid=           0
         NMat0=    1 NMatS0=      1 NMatT0=    0 NMatD0=    1 NMtDS0=    0 NMtDT0=    0
 Petite list used in FoFCou.
 Keep R1 ints in memory in canonical form, NReq=18312089.
 Requested convergence on RMS density matrix=1.00D-08 within 128 cycles.
 Requested convergence on MAX density matrix=1.00D-06.
 Requested convergence on             energy=1.00D-06.
 No special actions if energy rises.
 Integral accuracy reduced to 1.0D-05 until final iterations.
 Initial convergence to 1.0D-05 achieved.  Increase integral accuracy.
 SCF Done:  E(RB3LYP) =  -875.553840288     A.U. after   16 cycles
            NFock= 16  Conv=0.46D-08     -V/T= 2.0000

 **********************************************************************

            Population analysis using the SCF density.

 **********************************************************************

 Orbital symmetries:
       Occupied  (A) (A) (A) (A) (A) (A) (A) (A) (A) (A) (A) (A)
                 (A) (A) (A) (A) (A) (A) (A) (A) (A) (A) (A) (A)
                 (A) (A) (A) (A) (A) (A) (A) (A) (A) (A)
       Virtual   (A) (A) (A) (A) (A) (A) (A) (A) (A) (A) (A) (A)
                 (A) (A) (A) (A) (A) (A) (A) (A) (A) (A) (A) (A)
                 (A) (A) (A) (A) (A) (A) (A) (A) (A) (A) (A) (A)
                 (A) (A) (A) (A) (A) (A) (A) (A) (A) (A) (A) (A)
                 (A) (A) (A) (A) (A) (A) (A) (A) (A) (A) (A) (A)
                 (A) (A) (A) (A) (A) (A) (A) (A) (A) (A) (A) (A)
                 (A) (A)
 The electronic state is 1-A.
 Alpha  occ. eigenvalues --  -89.19044 -24.76198 -19.28581 -19.20465 -19.18309
 Alpha  occ. eigenvalues --  -19.18308 -19.18099  -8.27581  -6.23654  -6.23557
 Alpha  occ. eigenvalues --   -6.23415  -1.31982  -1.25736  -1.12049  -1.11766
 Alpha  occ. eigenvalues --   -1.08523  -1.02798  -0.72877  -0.66206  -0.61185
 Alpha  occ. eigenvalues --   -0.58288  -0.54522  -0.54373  -0.50634  -0.48374
 Alpha  occ. eigenvalues --   -0.47070  -0.42684  -0.40954  -0.39143  -0.38762
 Alpha  occ. eigenvalues --   -0.38109  -0.37224  -0.35482  -0.34689
 Alpha virt. eigenvalues --   -0.12199  -0.06524  -0.02481  -0.00678   0.06280
 Alpha virt. eigenvalues --    0.06561   0.12249   0.15889   0.17201   0.19178
 Alpha virt. eigenvalues --    0.24075   0.29711   0.35031   0.36859   0.43760
 Alpha virt. eigenvalues --    0.63116   0.64775   0.66514   0.71126   0.73016
 Alpha virt. eigenvalues --    0.73604   0.81232   0.86442   0.87430   0.88136
 Alpha virt. eigenvalues --    0.88726   0.94255   0.94321   0.98905   0.99109
 Alpha virt. eigenvalues --    0.99392   1.06538   1.07456   1.13315   1.21336
 Alpha virt. eigenvalues --    1.26394   1.32390   1.39770   1.45109   1.51435
 Alpha virt. eigenvalues --    1.57430   1.72594   2.08776   2.16850   2.26199
 Alpha virt. eigenvalues --    4.61413   4.64024   4.66389   4.67580   4.69318
 Alpha virt. eigenvalues --    4.69367   4.74711   4.75392   4.76598   4.83523
 Alpha virt. eigenvalues --    4.84420   4.85533   4.88735   4.93770   5.03477
 Alpha virt. eigenvalues --    5.97186   6.01217   6.12154   7.42057  16.99673
 Alpha virt. eigenvalues --   17.08433  17.10270  49.60786  49.66515  49.69787
 Alpha virt. eigenvalues --   49.72848  49.80380  66.56673 188.51369
          Condensed to atoms (all electrons):
               1          2          3          4          5          6
     1  S   14.353589   0.124035   0.123944  -0.009403  -0.033963  -0.028108
     2  O    0.124035   8.610290  -0.084761  -0.080147   0.001493  -0.065103
     3  O    0.123944  -0.084761   8.610462  -0.080140   0.001482  -0.065118
     4  O   -0.009403  -0.080147  -0.080140   8.664243   0.226221  -0.046854
     5  H   -0.033963   0.001493   0.001482   0.226221   0.258072   0.004394
     6  O   -0.028108  -0.065103  -0.065118  -0.046854   0.004394   8.493988
     7  F   -0.013918   0.003165   0.003183   0.001470   0.000233  -0.029937
     8  O   -0.001213  -0.000036  -0.000036  -0.027316   0.061384  -0.000629
     9  H   -0.000030  -0.000014  -0.000014   0.002002  -0.007407   0.004806
    10  H    0.000337   0.000004   0.000004   0.001325  -0.004053  -0.000074
               7          8          9         10
     1  S   -0.013918  -0.001213  -0.000030   0.000337
     2  O    0.003165  -0.000036  -0.000014   0.000004
     3  O    0.003183  -0.000036  -0.000014   0.000004
     4  O    0.001470  -0.027316   0.002002   0.001325
     5  H    0.000233   0.061384  -0.007407  -0.004053
     6  O   -0.029937  -0.000629   0.004806  -0.000074
     7  F    9.139604   0.000014  -0.000070   0.000000
     8  O    0.000014   8.242603   0.250765   0.260352
     9  H   -0.000070   0.250765   0.355373  -0.029519
    10  H    0.000000   0.260352  -0.029519   0.346279
 Mulliken charges:
               1
     1  S    1.484730
     2  O   -0.508925
     3  O   -0.509006
     4  O   -0.651401
     5  H    0.492144
     6  O   -0.267366
     7  F   -0.103742
     8  O   -0.785886
     9  H    0.424108
    10  H    0.425344
 Sum of Mulliken charges =   0.00000
 Mulliken charges with hydrogens summed into heavy atoms:
               1
     1  S    1.484730
     2  O   -0.508925
     3  O   -0.509006
     4  O   -0.159257
     6  O   -0.267366
     7  F   -0.103742
     8  O    0.063566
 Electronic spatial extent (au):  <R**2>=            949.5310
 Charge=              0.0000 electrons
 Dipole moment (field-independent basis, Debye):
    X=             -6.2481    Y=              1.8668    Z=              0.0023  Tot=              6.5210
 Quadrupole moment (field-independent basis, Debye-Ang):
   XX=            -31.0292   YY=            -49.2006   ZZ=            -53.8540
   XY=             -2.0018   XZ=             -0.0058   YZ=             -0.0055
 Traceless Quadrupole moment (field-independent basis, Debye-Ang):
   XX=             13.6654   YY=             -4.5060   ZZ=             -9.1594
   XY=             -2.0018   XZ=             -0.0058   YZ=             -0.0055
 Octapole moment (field-independent basis, Debye-Ang**2):
  XXX=            -98.0875  YYY=             15.3271  ZZZ=             -0.0048  XYY=             -5.6911
  XXY=             12.5227  XXZ=              0.0038  XZZ=             -9.2150  YZZ=              7.7875
  YYZ=              0.0087  XYZ=             -0.0090
 Hexadecapole moment (field-independent basis, Debye-Ang**3):
 XXXX=           -247.3796 YYYY=           -308.3376 ZZZZ=           -158.5888 XXXY=              3.0575
 XXXZ=             -0.0142 YYYX=             -4.5421 YYYZ=             -0.0039 ZZZX=             -0.0082
 ZZZY=             -0.0097 XXYY=           -128.8796 XXZZ=           -142.5086 YYZZ=            -77.2460
 XXYZ=             -0.0196 YYXZ=              0.0110 ZZXY=              7.2493
 N-N= 4.574909092987D+02 E-N=-2.990971827603D+03  KE= 8.755344638946D+02
 Calling FoFJK, ICntrl=      2127 FMM=F ISym2X=0 I1Cent= 0 IOpClX= 0 NMat=1 NMatS=1 NMatT=0.
 ***** Axes restored to original set *****
 -------------------------------------------------------------------
 Center     Atomic                   Forces (Hartrees/Bohr)
 Number     Number              X              Y              Z
 -------------------------------------------------------------------
      1       16          -0.017039640    0.042829902   -0.000003646
      2        8          -0.006684466   -0.075987804   -0.134564957
      3        8          -0.006399268   -0.075975748    0.134593990
      4        8          -0.041478347    0.030773888    0.000010568
      5        1           0.004048606    0.043195702    0.000004390
      6        8           0.032007361    0.064596019   -0.000084760
      7        9           0.035945200   -0.021091925    0.000025385
      8        8          -0.000781679   -0.008688426    0.000027190
      9        1           0.009414792   -0.004000041   -0.000007308
     10        1          -0.009032558    0.004348433   -0.000000851
 -------------------------------------------------------------------
 Cartesian Forces:  Max     0.134593990 RMS     0.045367075

 GradGradGradGradGradGradGradGradGradGradGradGradGradGradGradGradGradGrad
 Berny optimization.
 FormGI is forming the generalized inverse of G from B-inverse, IUseBI=4.
 Internal  Forces:  Max     0.154638154 RMS     0.045354145
 Search for a local minimum.
 Step number   1 out of a maximum of   41
 All quantities printed in internal units (Hartrees-Bohrs-Radians)
 Mixed Optimization -- RFO/linear search
 Second derivative matrix not updated -- first step.
 ITU=  0
     Eigenvalues ---    0.00230   0.00230   0.00230   0.00975   0.01009
     Eigenvalues ---    0.02439   0.07423   0.14378   0.15833   0.16000
     Eigenvalues ---    0.16000   0.16000   0.17186   0.19922   0.25000
     Eigenvalues ---    0.25000   0.33398   0.42129   0.48684   0.53257
     Eigenvalues ---    0.55473   0.55473   1.03467   1.03469
 RFO step:  Lambda=-7.80804519D-02 EMin= 2.30000000D-03
 Linear search not attempted -- first point.
 Maximum step size (   0.300) exceeded in Quadratic search.
    -- Step size scaled by   0.855
 Iteration  1 RMS(Cart)=  0.08989928 RMS(Int)=  0.00086932
 Iteration  2 RMS(Cart)=  0.00166362 RMS(Int)=  0.00006816
 Iteration  3 RMS(Cart)=  0.00000200 RMS(Int)=  0.00006815
 Iteration  4 RMS(Cart)=  0.00000000 RMS(Int)=  0.00006815
 Variable       Old X    -DE/DX   Delta X   Delta X   Delta X     New X
                                 (Linear)    (Quad)   (Total)
    R1        2.70981   0.15463   0.00000   0.11880   0.11880   2.82860
    R2        2.70982   0.15464   0.00000   0.11880   0.11880   2.82862
    R3        3.04917   0.07517   0.00000   0.11375   0.11375   3.16293
    R4        3.25357   0.08054   0.00000   0.16708   0.16708   3.42066
    R5        1.83415   0.03186   0.00000   0.04460   0.04460   1.87875
    R6        3.21062  -0.00775   0.00000  -0.04348  -0.04348   3.16715
    R7        2.68759   0.04136   0.00000   0.07081   0.07081   2.75840
    R8        1.81414   0.00942   0.00000   0.01272   0.01272   1.82686
    R9        1.81414   0.00711   0.00000   0.00961   0.00961   1.82375
    A1        2.14299  -0.00325   0.00000  -0.01064  -0.01091   2.13208
    A2        1.92049   0.00438   0.00000   0.01567   0.01558   1.93607
    A3        1.90548  -0.00173   0.00000  -0.00795  -0.00800   1.89748
    A4        1.92068   0.00438   0.00000   0.01568   0.01559   1.93627
    A5        1.90540  -0.00174   0.00000  -0.00798  -0.00804   1.89737
    A6        1.58804  -0.00174   0.00000  -0.00325  -0.00323   1.58481
    A7        1.96054   0.02234   0.00000   0.08021   0.08021   2.04075
    A8        1.85938   0.01368   0.00000   0.03564   0.03564   1.89502
    A9        1.99955  -0.00057   0.00000  -0.00205  -0.00205   1.99750
   A10        2.37250  -0.00612   0.00000  -0.02196  -0.02196   2.35054
   A11        1.91114   0.00669   0.00000   0.02401   0.02401   1.93515
   A12        3.24761  -0.00446   0.00000  -0.04747  -0.04747   3.20014
   A13        3.13981   0.00004   0.00000   0.00038   0.00038   3.14019
    D1       -1.93613   0.00186   0.00000   0.00733   0.00745  -1.92868
    D2        1.93332  -0.00188   0.00000  -0.00746  -0.00757   1.92575
    D3       -0.00138   0.00000   0.00000  -0.00005  -0.00005  -0.00142
    D4       -1.19468   0.00375   0.00000   0.01432   0.01422  -1.18046
    D5        1.19132  -0.00375   0.00000  -0.01426  -0.01416   1.17715
    D6        3.14001   0.00000   0.00000   0.00003   0.00003   3.14004
    D7       -0.00087   0.00001   0.00000   0.00004   0.00004  -0.00083
    D8        3.14119   0.00000   0.00000   0.00003   0.00003   3.14122
    D9       -3.14059  -0.00001   0.00000  -0.00011  -0.00011  -3.14070
         Item               Value     Threshold  Converged?
 Maximum Force            0.154638     0.000450     NO 
 RMS     Force            0.045354     0.000300     NO 
 Maximum Displacement     0.217184     0.001800     NO 
 RMS     Displacement     0.090964     0.001200     NO 
 Predicted change in Energy=-4.175152D-02
 GradGradGradGradGradGradGradGradGradGradGradGradGradGradGradGradGradGrad

                          Input orientation:                          
 ---------------------------------------------------------------------
 Center     Atomic      Atomic             Coordinates (Angstroms)
 Number     Number       Type             X           Y           Z
 ---------------------------------------------------------------------
      1         16           0       -2.113519   -0.948758    0.000030
      2          8           0       -2.211539   -1.666365   -1.309908
      3          8           0       -2.208761   -1.665917    1.310430
      4          8           0       -3.066258    0.427370    0.000626
      5          1           0       -2.593739    1.302093    0.001240
      6          8           0       -0.610966    0.060657   -0.001631
      7          9           0        0.546608   -0.828551   -0.000378
      8          8           0       -1.884824    2.820761    0.000057
      9          1           0       -0.918140    2.811059    0.000237
     10          1           0       -2.219660    3.725899    0.000022
 ---------------------------------------------------------------------
                    Distance matrix (angstroms):
                    1          2          3          4          5
     1  S    0.000000
     2  O    1.496832   0.000000
     3  O    1.496842   2.620340   0.000000
     4  O    1.673750   2.613766   2.613950   0.000000
     5  H    2.301508   3.267557   3.266691   0.994191   0.000000
     6  O    1.810134   2.693701   2.693605   2.482527   2.339350
     7  F    2.662841   3.166097   3.164088   3.824936   3.794921
     8  O    3.776450   4.685836   4.685327   2.669103   1.675982
     9  H    3.945270   4.841146   4.840002   3.208798   2.254909
    10  H    4.675861   5.549099   5.548780   3.405440   2.452503
                    6          7          8          9         10
     6  O    0.000000
     7  F    1.459681   0.000000
     8  O    3.039883   4.385127   0.000000
     9  H    2.767503   3.923295   0.966733   0.000000
    10  H    4.002736   5.328719   0.965085   1.590876   0.000000
 Stoichiometry    FH3O5S
 Framework group  C1[X(FH3O5S)]
 Deg. of freedom    24
 Full point group                 C1      NOp   1
 Largest Abelian subgroup         C1      NOp   1
 Largest concise Abelian subgroup C1      NOp   1
                         Standard orientation:                         
 ---------------------------------------------------------------------
 Center     Atomic      Atomic             Coordinates (Angstroms)
 Number     Number       Type             X           Y           Z
 ---------------------------------------------------------------------
      1         16           0        0.691256   -0.487336    0.000101
      2          8           0        1.398596   -0.643023   -1.309837
      3          8           0        1.398373   -0.640219    1.310501
      4          8           0       -0.757359   -1.325759    0.000697
      5          1           0       -1.591039   -0.784101    0.001310
      6          8           0       -0.193441    1.091870   -0.001560
      7          9           0        0.786400    2.173804   -0.000307
      8          8           0       -3.047456    0.045215    0.000128
      9          1           0       -2.959670    1.007954    0.000307
     10          1           0       -3.976690   -0.215384    0.000093
 ---------------------------------------------------------------------
 Rotational constants (GHZ):      2.3586303      1.5335277      1.1644750
 Standard basis: 6-311G (5D, 7F)
 There are   108 symmetry adapted cartesian basis functions of A   symmetry.
 There are   108 symmetry adapted basis functions of A   symmetry.
   108 basis functions,   211 primitive gaussians,   108 cartesian basis functions
    34 alpha electrons       34 beta electrons
       nuclear repulsion energy       439.8419906713 Hartrees.



 Warning!  S  atom    1 may be hypervalent but has no d functions.



 NAtoms=   10 NActive=   10 NUniq=   10 SFac= 1.00D+00 NAtFMM=   60 NAOKFM=F Big=F
 Integral buffers will be    131072 words long.
 Raffenetti 2 integral format.
 Two-electron integral symmetry is turned on.
 One-electron integrals computed using PRISM.
 NBasis=   108 RedAO= T EigKep=  9.92D-03  NBF=   108
 NBsUse=   108 1.00D-06 EigRej= -1.00D+00 NBFU=   108
 Initial guess from the checkpoint file:  "HFSO4-h2o.chk"
 B after Tr=     0.000000    0.000000    0.000000
         Rot=    0.999905    0.000019    0.000014    0.013788 Ang=   1.58 deg.
 ExpMin= 7.71D-02 ExpMax= 9.34D+04 ExpMxC= 3.17D+03 IAcc=2 IRadAn=         4 AccDes= 0.00D+00
 Harris functional with IExCor=  402 and IRadAn=       4 diagonalized for initial guess.
 HarFok:  IExCor=  402 AccDes= 0.00D+00 IRadAn=         4 IDoV= 1 UseB2=F ITyADJ=14
 ICtDFT=  3500011 ScaDFX=  1.000000  1.000000  1.000000  1.000000
 FoFCou: FMM=F IPFlag=           0 FMFlag=      100000 FMFlg1=           0
         NFxFlg=           0 DoJE=T BraDBF=F KetDBF=T FulRan=T
         wScrn=  0.000000 ICntrl=     500 IOpCl=  0 I1Cent=   200000004 NGrid=           0
         NMat0=    1 NMatS0=      1 NMatT0=    0 NMatD0=    1 NMtDS0=    0 NMtDT0=    0
 Petite list used in FoFCou.
 Keep R1 ints in memory in canonical form, NReq=18312089.
 Requested convergence on RMS density matrix=1.00D-08 within 128 cycles.
 Requested convergence on MAX density matrix=1.00D-06.
 Requested convergence on             energy=1.00D-06.
 No special actions if energy rises.
 Integral accuracy reduced to 1.0D-05 until final iterations.
 Initial convergence to 1.0D-05 achieved.  Increase integral accuracy.
 SCF Done:  E(RB3LYP) =  -875.601621481     A.U. after   14 cycles
            NFock= 14  Conv=0.79D-08     -V/T= 2.0010
 Calling FoFJK, ICntrl=      2127 FMM=F ISym2X=0 I1Cent= 0 IOpClX= 0 NMat=1 NMatS=1 NMatT=0.
 ***** Axes restored to original set *****
 -------------------------------------------------------------------
 Center     Atomic                   Forces (Hartrees/Bohr)
 Number     Number              X              Y              Z
 -------------------------------------------------------------------
      1       16          -0.006392847    0.023242408    0.000010413
      2        8          -0.005139492   -0.037298768   -0.067420556
      3        8          -0.004988286   -0.037277341    0.067447610
      4        8          -0.021839585    0.014504124   -0.000004247
      5        1           0.006277620    0.021171858   -0.000011031
      6        8           0.022966646    0.033185936   -0.000049348
      7        9           0.009999812   -0.007979276    0.000010474
      8        8           0.001745633   -0.007479484    0.000024358
      9        1           0.002014795   -0.001581288   -0.000006026
     10        1          -0.004644296   -0.000488169   -0.000001647
 -------------------------------------------------------------------
 Cartesian Forces:  Max     0.067447610 RMS     0.022776214

 GradGradGradGradGradGradGradGradGradGradGradGradGradGradGradGradGradGrad
 Berny optimization.
 Using GEDIIS/GDIIS optimizer.
 FormGI is forming the generalized inverse of G from B-inverse, IUseBI=4.
 Internal  Forces:  Max     0.077223748 RMS     0.022091976
 Search for a local minimum.
 Step number   2 out of a maximum of   41
 All quantities printed in internal units (Hartrees-Bohrs-Radians)
 Mixed Optimization -- RFO/linear search
 Update second derivatives using D2CorX and points    1    2
 DE= -4.78D-02 DEPred=-4.18D-02 R= 1.14D+00
 TightC=F SS=  1.41D+00  RLast= 3.01D-01 DXNew= 5.0454D-01 9.0256D-01
 Trust test= 1.14D+00 RLast= 3.01D-01 DXMaxT set to 5.05D-01
 ITU=  1  0
 Use linear search instead of GDIIS.
     Eigenvalues ---    0.00230   0.00230   0.00230   0.00991   0.01009
     Eigenvalues ---    0.02440   0.07336   0.14396   0.15793   0.15909
     Eigenvalues ---    0.16000   0.16877   0.17185   0.19900   0.24747
     Eigenvalues ---    0.25190   0.30710   0.42678   0.47543   0.53064
     Eigenvalues ---    0.55473   0.55588   0.79083   1.03468
 RFO step:  Lambda=-1.96380087D-02 EMin= 2.29644118D-03
 Quartic linear search produced a step of  1.32159.
 Maximum step size (   0.505) exceeded in Quadratic search.
    -- Step size scaled by   0.718
 Iteration  1 RMS(Cart)=  0.17202135 RMS(Int)=  0.06001004
 Iteration  2 RMS(Cart)=  0.17095200 RMS(Int)=  0.02387647
 Iteration  3 RMS(Cart)=  0.11156293 RMS(Int)=  0.00315613
 Iteration  4 RMS(Cart)=  0.00412329 RMS(Int)=  0.00018599
 Iteration  5 RMS(Cart)=  0.00000077 RMS(Int)=  0.00018599
 Variable       Old X    -DE/DX   Delta X   Delta X   Delta X     New X
                                 (Linear)    (Quad)   (Total)
    R1        2.82860   0.07722   0.15700   0.00745   0.16445   2.99306
    R2        2.82862   0.07722   0.15701   0.00745   0.16446   2.99309
    R3        3.16293   0.03083   0.15034  -0.00032   0.15002   3.31295
    R4        3.42066   0.04141   0.22082   0.05472   0.27554   3.69620
    R5        1.87875   0.01280   0.05894  -0.00174   0.05720   1.93595
    R6        3.16715  -0.00902  -0.05746  -0.14516  -0.20261   2.96453
    R7        2.75840   0.01279   0.09359  -0.01346   0.08012   2.83852
    R8        1.82686   0.00204   0.01682  -0.00561   0.01120   1.83806
    R9        1.82375   0.00115   0.01270  -0.00535   0.00735   1.83109
    A1        2.13208  -0.00054  -0.01442   0.00924  -0.00580   2.12628
    A2        1.93607   0.00123   0.02059  -0.00321   0.01702   1.95309
    A3        1.89748   0.00145  -0.01058   0.01213   0.00162   1.89910
    A4        1.93627   0.00125   0.02061  -0.00314   0.01711   1.95338
    A5        1.89737   0.00144  -0.01062   0.01211   0.00156   1.89893
    A6        1.58481  -0.00637  -0.00427  -0.03921  -0.04338   1.54144
    A7        2.04075  -0.00352   0.10600  -0.08404   0.02196   2.06271
    A8        1.89502  -0.00067   0.04710  -0.03154   0.01556   1.91058
    A9        1.99750   0.00084  -0.00271   0.00905   0.00633   2.00383
   A10        2.35054  -0.00454  -0.02902  -0.02750  -0.05652   2.29402
   A11        1.93515   0.00370   0.03174   0.01845   0.05019   1.98533
   A12        3.20014  -0.00494  -0.06274  -0.46792  -0.53066   2.66948
   A13        3.14019   0.00003   0.00050   0.00294   0.00345   3.14364
    D1       -1.92868   0.00087   0.00984   0.00337   0.01366  -1.91502
    D2        1.92575  -0.00088  -0.01001  -0.00382  -0.01427   1.91147
    D3       -0.00142   0.00000  -0.00006  -0.00022  -0.00027  -0.00170
    D4       -1.18046  -0.00083   0.01879  -0.01607   0.00265  -1.17782
    D5        1.17715   0.00082  -0.01872   0.01615  -0.00249   1.17466
    D6        3.14004   0.00000   0.00004   0.00008   0.00012   3.14016
    D7       -0.00083   0.00000   0.00005   0.00009   0.00018  -0.00065
    D8        3.14122   0.00000   0.00004   0.00041   0.00042  -3.14155
    D9       -3.14070  -0.00001  -0.00015  -0.00068  -0.00079  -3.14149
         Item               Value     Threshold  Converged?
 Maximum Force            0.077224     0.000450     NO 
 RMS     Force            0.022092     0.000300     NO 
 Maximum Displacement     1.353362     0.001800     NO 
 RMS     Displacement     0.438995     0.001200     NO 
 Predicted change in Energy=-1.525618D-02
 GradGradGradGradGradGradGradGradGradGradGradGradGradGradGradGradGradGrad

                          Input orientation:                          
 ---------------------------------------------------------------------
 Center     Atomic      Atomic             Coordinates (Angstroms)
 Number     Number       Type             X           Y           Z
 ---------------------------------------------------------------------
      1         16           0       -2.161098   -0.855863    0.000321
      2          8           0       -2.148036   -1.627883   -1.382581
      3          8           0       -2.145177   -1.623500    1.385649
      4          8           0       -3.309725    0.468577   -0.000862
      5          1           0       -2.944564    1.425750   -0.001212
      6          8           0       -0.721702    0.468462   -0.003089
      7          9           0        0.605591   -0.234771   -0.001049
      8          8           0       -1.779989    2.476835    0.000671
      9          1           0       -0.885458    2.094891    0.002202
     10          1           0       -1.790642    3.445750    0.000675
 ---------------------------------------------------------------------
                    Distance matrix (angstroms):
                    1          2          3          4          5
     1  S    0.000000
     2  O    1.583857   0.000000
     3  O    1.583873   2.768235   0.000000
     4  O    1.753136   2.766552   2.766834   0.000000
     5  H    2.412381   3.444896   3.443883   1.024462   0.000000
     6  O    1.955942   2.886536   2.886378   2.588024   2.420232
     7  F    2.835547   3.381102   3.379086   3.977989   3.919302
     8  O    3.354418   4.347131   4.343301   2.524518   1.568763
     9  H    3.214687   4.167825   4.162601   2.919242   2.165105
    10  H    4.317536   5.270946   5.266986   3.342330   2.326357
                    6          7          8          9         10
     6  O    0.000000
     7  F    1.502081   0.000000
     8  O    2.270143   3.611620   0.000000
     9  H    1.634660   2.765965   0.972661   0.000000
    10  H    3.163367   4.391830   0.968974   1.626094   0.000000
 Stoichiometry    FH3O5S
 Framework group  C1[X(FH3O5S)]
 Deg. of freedom    24
 Full point group                 C1      NOp   1
 Largest Abelian subgroup         C1      NOp   1
 Largest concise Abelian subgroup C1      NOp   1
                         Standard orientation:                         
 ---------------------------------------------------------------------
 Center     Atomic      Atomic             Coordinates (Angstroms)
 Number     Number       Type             X           Y           Z
 ---------------------------------------------------------------------
      1         16           0        0.824257   -0.297327    0.000355
      2          8           0        1.576991   -0.124525   -1.382445
      3          8           0        1.571920   -0.123444    1.385785
      4          8           0       -0.234085   -1.694966   -0.001311
      5          1           0       -1.246074   -1.535593   -0.001684
      6          8           0       -0.769052    0.837162   -0.002833
      7          9           0       -0.355435    2.281171   -0.000342
      8          8           0       -2.515227   -0.613496    0.000381
      9          1           0       -2.326483    0.340675    0.002204
     10          1           0       -3.461005   -0.824244    0.000258
 ---------------------------------------------------------------------
 Rotational constants (GHZ):      2.2038731      1.7109728      1.2567923
 Standard basis: 6-311G (5D, 7F)
 There are   108 symmetry adapted cartesian basis functions of A   symmetry.
 There are   108 symmetry adapted basis functions of A   symmetry.
   108 basis functions,   211 primitive gaussians,   108 cartesian basis functions
    34 alpha electrons       34 beta electrons
       nuclear repulsion energy       434.0593889899 Hartrees.



 Warning!  S  atom    1 may be hypervalent but has no d functions.



 NAtoms=   10 NActive=   10 NUniq=   10 SFac= 1.00D+00 NAtFMM=   60 NAOKFM=F Big=F
 Integral buffers will be    131072 words long.
 Raffenetti 2 integral format.
 Two-electron integral symmetry is turned on.
 One-electron integrals computed using PRISM.
 NBasis=   108 RedAO= T EigKep=  1.32D-02  NBF=   108
 NBsUse=   108 1.00D-06 EigRej= -1.00D+00 NBFU=   108
 Initial guess from the checkpoint file:  "HFSO4-h2o.chk"
 B after Tr=     0.000000    0.000000    0.000000
         Rot=    0.984806   -0.000063    0.000233   -0.173658 Ang= -20.00 deg.
 ExpMin= 7.71D-02 ExpMax= 9.34D+04 ExpMxC= 3.17D+03 IAcc=2 IRadAn=         4 AccDes= 0.00D+00
 Harris functional with IExCor=  402 and IRadAn=       4 diagonalized for initial guess.
 HarFok:  IExCor=  402 AccDes= 0.00D+00 IRadAn=         4 IDoV= 1 UseB2=F ITyADJ=14
 ICtDFT=  3500011 ScaDFX=  1.000000  1.000000  1.000000  1.000000
 FoFCou: FMM=F IPFlag=           0 FMFlag=      100000 FMFlg1=           0
         NFxFlg=           0 DoJE=T BraDBF=F KetDBF=T FulRan=T
         wScrn=  0.000000 ICntrl=     500 IOpCl=  0 I1Cent=   200000004 NGrid=           0
         NMat0=    1 NMatS0=      1 NMatT0=    0 NMatD0=    1 NMtDS0=    0 NMtDT0=    0
 Petite list used in FoFCou.
 Keep R1 ints in memory in canonical form, NReq=18312089.
 Requested convergence on RMS density matrix=1.00D-08 within 128 cycles.
 Requested convergence on MAX density matrix=1.00D-06.
 Requested convergence on             energy=1.00D-06.
 No special actions if energy rises.
 Integral accuracy reduced to 1.0D-05 until final iterations.
 Initial convergence to 1.0D-05 achieved.  Increase integral accuracy.
 SCF Done:  E(RB3LYP) =  -875.612583628     A.U. after   18 cycles
            NFock= 18  Conv=0.59D-08     -V/T= 2.0017
 Calling FoFJK, ICntrl=      2127 FMM=F ISym2X=0 I1Cent= 0 IOpClX= 0 NMat=1 NMatS=1 NMatT=0.
 ***** Axes restored to original set *****
 -------------------------------------------------------------------
 Center     Atomic                   Forces (Hartrees/Bohr)
 Number     Number              X              Y              Z
 -------------------------------------------------------------------
      1       16          -0.006057335    0.014420271    0.000003567
      2        8           0.000057357   -0.002129871   -0.005003867
      3        8           0.000068808   -0.002120333    0.005014078
      4        8          -0.017729336   -0.014170984   -0.000033225
      5        1           0.021763129   -0.001188512    0.000058450
      6        8           0.029121549   -0.026028440   -0.000079591
      7        9          -0.010791004    0.002620482   -0.000004701
      8        8          -0.012226462    0.027501185    0.000038687
      9        1          -0.001621255    0.003833912    0.000019010
     10        1          -0.002585450   -0.002737709   -0.000012407
 -------------------------------------------------------------------
 Cartesian Forces:  Max     0.029121549 RMS     0.011372813

 GradGradGradGradGradGradGradGradGradGradGradGradGradGradGradGradGradGrad
 Berny optimization.
 Using GEDIIS/GDIIS optimizer.
 FormGI is forming the generalized inverse of G from B-inverse, IUseBI=4.
 Internal  Forces:  Max     0.114947511 RMS     0.034465808
 Search for a local minimum.
 Step number   3 out of a maximum of   41
 All quantities printed in internal units (Hartrees-Bohrs-Radians)
 Mixed Optimization -- RFO/linear search
 Update second derivatives using D2CorX and points    2    3
 DE= -1.10D-02 DEPred=-1.53D-02 R= 7.19D-01
 TightC=F SS=  1.41D+00  RLast= 7.03D-01 DXNew= 8.4853D-01 2.1095D+00
 Trust test= 7.19D-01 RLast= 7.03D-01 DXMaxT set to 8.49D-01
 ITU=  1  1  0
 Use linear search instead of GDIIS.
     Eigenvalues ---    0.00230   0.00230   0.00530   0.00992   0.01009
     Eigenvalues ---    0.02435   0.06164   0.09643   0.13877   0.15965
     Eigenvalues ---    0.16016   0.16468   0.17570   0.19507   0.22323
     Eigenvalues ---    0.25303   0.40681   0.44133   0.50244   0.54236
     Eigenvalues ---    0.55474   0.55936   0.79558   1.03468
 RFO step:  Lambda=-8.71799146D-02 EMin= 2.29995666D-03
 Quartic linear search produced a step of -0.33768.
 Iteration  1 RMS(Cart)=  0.43751413 RMS(Int)=  0.07527503
 Iteration  2 RMS(Cart)=  0.26971422 RMS(Int)=  0.03310549
 Iteration  3 RMS(Cart)=  0.11867699 RMS(Int)=  0.00518628
 Iteration  4 RMS(Cart)=  0.00865570 RMS(Int)=  0.00027673
 Iteration  5 RMS(Cart)=  0.00001121 RMS(Int)=  0.00027671
 Iteration  6 RMS(Cart)=  0.00000000 RMS(Int)=  0.00027671
 Variable       Old X    -DE/DX   Delta X   Delta X   Delta X     New X
                                 (Linear)    (Quad)   (Total)
    R1        2.99306   0.00541  -0.05553   0.29275   0.23722   3.23028
    R2        2.99309   0.00541  -0.05554   0.29278   0.23724   3.23033
    R3        3.31295   0.01812  -0.05066   0.26127   0.21061   3.52356
    R4        3.69620  -0.00236  -0.09304   0.43336   0.34032   4.03651
    R5        1.93595   0.02751  -0.01932   0.11798   0.09866   2.03462
    R6        2.96453   0.00696   0.06842  -0.21643  -0.14801   2.81652
    R7        2.83852  -0.01076  -0.02706   0.11279   0.08574   2.92426
    R8        1.83806  -0.00300  -0.00378   0.01462   0.01083   1.84890
    R9        1.83109  -0.00271  -0.00248   0.00855   0.00607   1.83716
    A1        2.12628   0.00233   0.00196  -0.02122  -0.01996   2.10632
    A2        1.95309  -0.01628  -0.00575  -0.00194  -0.00795   1.94514
    A3        1.89910  -0.01916  -0.00055  -0.01825  -0.01955   1.87955
    A4        1.95338  -0.01627  -0.00578  -0.00176  -0.00781   1.94557
    A5        1.89893  -0.01905  -0.00053  -0.01810  -0.01939   1.87954
    A6        1.54144   0.09378   0.01465   0.09254   0.10678   1.64821
    A7        2.06271   0.11495  -0.00742   0.25882   0.25141   2.31412
    A8        1.91058  -0.00777  -0.00526   0.00164  -0.00362   1.90697
    A9        2.00383   0.00514  -0.00214   0.02199   0.01985   2.02368
   A10        2.29402  -0.00496   0.01908  -0.09120  -0.07212   2.22191
   A11        1.98533  -0.00017  -0.01695   0.06922   0.05227   2.03760
   A12        2.66948   0.10568   0.17919   0.35123   0.53043   3.19990
   A13        3.14364  -0.00006  -0.00117   0.00162   0.00044   3.14408
    D1       -1.91502  -0.01659  -0.00461  -0.01921  -0.02411  -1.93913
    D2        1.91147   0.01649   0.00482   0.01808   0.02320   1.93467
    D3       -0.00170  -0.00013   0.00009  -0.00067  -0.00058  -0.00228
    D4       -1.17782   0.01406  -0.00089   0.02904   0.02778  -1.15003
    D5        1.17466  -0.01407   0.00084  -0.02903  -0.02783   1.14684
    D6        3.14016   0.00000  -0.00004   0.00010   0.00006   3.14022
    D7       -0.00065  -0.00007  -0.00006  -0.00017  -0.00026  -0.00091
    D8       -3.14155   0.00002  -0.00014   0.00019   0.00008  -3.14147
    D9       -3.14149  -0.00004   0.00027  -0.00059  -0.00036   3.14134
         Item               Value     Threshold  Converged?
 Maximum Force            0.114948     0.000450     NO 
 RMS     Force            0.034466     0.000300     NO 
 Maximum Displacement     2.183313     0.001800     NO 
 RMS     Displacement     0.798134     0.001200     NO 
 Predicted change in Energy=-8.194296D-02
 GradGradGradGradGradGradGradGradGradGradGradGradGradGradGradGradGradGrad

                          Input orientation:                          
 ---------------------------------------------------------------------
 Center     Atomic      Atomic             Coordinates (Angstroms)
 Number     Number       Type             X           Y           Z
 ---------------------------------------------------------------------
      1         16           0       -2.091176   -1.034914    0.000207
      2          8           0       -2.323268   -1.851128   -1.483687
      3          8           0       -2.317889   -1.847005    1.487220
      4          8           0       -2.925637    0.632525   -0.001028
      5          1           0       -2.542859    1.638856   -0.001494
      6          8           0       -0.112786   -0.229570   -0.004486
      7          9           0        0.910785   -1.390130   -0.002386
      8          8           0       -2.095059    3.060431    0.001450
      9          1           0       -1.127324    3.204428    0.004311
     10          1           0       -2.655587    3.854755    0.000619
 ---------------------------------------------------------------------
                    Distance matrix (angstroms):
                    1          2          3          4          5
     1  S    0.000000
     2  O    1.709389   0.000000
     3  O    1.709415   2.970915   0.000000
     4  O    1.864585   2.954599   2.955048   0.000000
     5  H    2.711654   3.798040   3.797118   1.076672   0.000000
     6  O    2.136031   3.115078   3.115087   2.941998   3.065336
     7  F    3.022905   3.586903   3.584969   4.336966   4.593737
     8  O    4.095347   5.136256   5.132260   2.566047   1.490439
     9  H    4.347533   5.403986   5.397540   3.138255   2.110637
    10  H    4.922136   5.905142   5.902041   3.233527   2.218765
                    6          7          8          9         10
     6  O    0.000000
     7  F    1.547450   0.000000
     8  O    3.841035   5.370532   0.000000
     9  H    3.580741   5.026321   0.978394   0.000000
    10  H    4.811193   6.342542   0.972184   1.660881   0.000000
 Stoichiometry    FH3O5S
 Framework group  C1[X(FH3O5S)]
 Deg. of freedom    24
 Full point group                 C1      NOp   1
 Largest Abelian subgroup         C1      NOp   1
 Largest concise Abelian subgroup C1      NOp   1
                         Standard orientation:                         
 ---------------------------------------------------------------------
 Center     Atomic      Atomic             Coordinates (Angstroms)
 Number     Number       Type             X           Y           Z
 ---------------------------------------------------------------------
      1         16           0        0.538584   -0.661833    0.000382
      2          8           0        1.252851   -1.120310   -1.483408
      3          8           0        1.248942   -1.115673    1.487501
      4          8           0       -1.299416   -0.975563   -0.001978
      5          1           0       -2.151026   -0.316789   -0.002502
      6          8           0        0.343104    1.465232   -0.003189
      7          9           0        1.751084    2.107247    0.000004
      8          8           0       -3.381049    0.524902    0.000293
      9          1           0       -3.237525    1.492705    0.003784
     10          1           0       -4.304010    0.219476   -0.001188
 ---------------------------------------------------------------------
 Rotational constants (GHZ):      1.9081771      1.1663684      0.9073798
 Standard basis: 6-311G (5D, 7F)
 There are   108 symmetry adapted cartesian basis functions of A   symmetry.
 There are   108 symmetry adapted basis functions of A   symmetry.
   108 basis functions,   211 primitive gaussians,   108 cartesian basis functions
    34 alpha electrons       34 beta electrons
       nuclear repulsion energy       390.6925348050 Hartrees.
 NAtoms=   10 NActive=   10 NUniq=   10 SFac= 1.00D+00 NAtFMM=   60 NAOKFM=F Big=F
 Integral buffers will be    131072 words long.
 Raffenetti 2 integral format.
 Two-electron integral symmetry is turned on.
 One-electron integrals computed using PRISM.
 NBasis=   108 RedAO= T EigKep=  1.90D-02  NBF=   108
 NBsUse=   108 1.00D-06 EigRej= -1.00D+00 NBFU=   108
 Initial guess from the checkpoint file:  "HFSO4-h2o.chk"
 B after Tr=     0.000000    0.000000    0.000000
         Rot=    0.953267   -0.000098    0.000095    0.302130 Ang= -35.17 deg.
 ExpMin= 7.71D-02 ExpMax= 9.34D+04 ExpMxC= 3.17D+03 IAcc=2 IRadAn=         4 AccDes= 0.00D+00
 Harris functional with IExCor=  402 and IRadAn=       4 diagonalized for initial guess.
 HarFok:  IExCor=  402 AccDes= 0.00D+00 IRadAn=         4 IDoV= 1 UseB2=F ITyADJ=14
 ICtDFT=  3500011 ScaDFX=  1.000000  1.000000  1.000000  1.000000
 FoFCou: FMM=F IPFlag=           0 FMFlag=      100000 FMFlg1=           0
         NFxFlg=           0 DoJE=T BraDBF=F KetDBF=T FulRan=T
         wScrn=  0.000000 ICntrl=     500 IOpCl=  0 I1Cent=   200000004 NGrid=           0
         NMat0=    1 NMatS0=      1 NMatT0=    0 NMatD0=    1 NMtDS0=    0 NMtDT0=    0
 Petite list used in FoFCou.
 Keep R1 ints in memory in canonical form, NReq=18312089.
 Requested convergence on RMS density matrix=1.00D-08 within 128 cycles.
 Requested convergence on MAX density matrix=1.00D-06.
 Requested convergence on             energy=1.00D-06.
 No special actions if energy rises.
 Integral accuracy reduced to 1.0D-05 until final iterations.
 Initial convergence to 1.0D-05 achieved.  Increase integral accuracy.
 SCF Done:  E(RB3LYP) =  -875.590236329     A.U. after   19 cycles
            NFock= 19  Conv=0.57D-08     -V/T= 2.0027
 Calling FoFJK, ICntrl=      2127 FMM=F ISym2X=0 I1Cent= 0 IOpClX= 0 NMat=1 NMatS=1 NMatT=0.
 ***** Axes restored to original set *****
 -------------------------------------------------------------------
 Center     Atomic                   Forces (Hartrees/Bohr)
 Number     Number              X              Y              Z
 -------------------------------------------------------------------
      1       16           0.002761804   -0.004140224    0.000009978
      2        8           0.004930359    0.025308742    0.043871280
      3        8           0.004777932    0.025187500   -0.043955548
      4        8          -0.001192548   -0.019065401   -0.000024773
      5        1           0.012648171   -0.016692603    0.000092011
      6        8           0.002571990   -0.027305937    0.000078762
      7        9          -0.026029130    0.024203863   -0.000033983
      8        8           0.004940398   -0.007126563   -0.000029240
      9        1          -0.013243671    0.004347481   -0.000028465
     10        1           0.007834695   -0.004716859    0.000019978
 -------------------------------------------------------------------
 Cartesian Forces:  Max     0.043955548 RMS     0.016709151

 GradGradGradGradGradGradGradGradGradGradGradGradGradGradGradGradGradGrad
 Berny optimization.
 Using GEDIIS/GDIIS optimizer.
 FormGI is forming the generalized inverse of G from B-inverse, IUseBI=4.
 Internal  Forces:  Max     0.050838252 RMS     0.019198011
 Search for a local minimum.
 Step number   4 out of a maximum of   41
 All quantities printed in internal units (Hartrees-Bohrs-Radians)
 Mixed Optimization -- RFO/linear search
 Update second derivatives using D2CorX and points    4    3
 DE=  2.23D-02 DEPred=-8.19D-02 R=-2.73D-01
 Trust test=-2.73D-01 RLast= 8.25D-01 DXMaxT set to 4.24D-01
 ITU= -1  1  1  0
 Use linear search instead of GDIIS.
 Energy rises -- skip Quadratic/GDIIS search.
 Quartic linear search produced a step of -0.75326.
 Iteration  1 RMS(Cart)=  0.40310111 RMS(Int)=  0.05549294
 Iteration  2 RMS(Cart)=  0.18278885 RMS(Int)=  0.00868161
 Iteration  3 RMS(Cart)=  0.02371989 RMS(Int)=  0.00011642
 Iteration  4 RMS(Cart)=  0.00016147 RMS(Int)=  0.00005076
 Iteration  5 RMS(Cart)=  0.00000002 RMS(Int)=  0.00005076
 Variable       Old X    -DE/DX   Delta X   Delta X   Delta X     New X
                                 (Linear)    (Quad)   (Total)
    R1        3.23028  -0.05084  -0.17869   0.00000  -0.17869   3.05159
    R2        3.23033  -0.05084  -0.17870   0.00000  -0.17870   3.05162
    R3        3.52356  -0.04359  -0.15864   0.00000  -0.15864   3.36491
    R4        4.03651  -0.02288  -0.25635   0.00000  -0.25635   3.78016
    R5        2.03462  -0.01830  -0.07432   0.00000  -0.07432   1.96030
    R6        2.81652  -0.00730   0.11149   0.00000   0.11149   2.92801
    R7        2.92426  -0.03537  -0.06458   0.00000  -0.06458   2.85968
    R8        1.84890  -0.01247  -0.00816   0.00000  -0.00816   1.84074
    R9        1.83716  -0.00837  -0.00457   0.00000  -0.00457   1.83259
    A1        2.10632   0.00075   0.01503   0.00000   0.01518   2.12150
    A2        1.94514  -0.00120   0.00599   0.00000   0.00605   1.95119
    A3        1.87955   0.00430   0.01472   0.00000   0.01486   1.89441
    A4        1.94557  -0.00120   0.00589   0.00000   0.00595   1.95152
    A5        1.87954   0.00428   0.01461   0.00000   0.01474   1.89428
    A6        1.64821  -0.00836  -0.08043   0.00000  -0.08036   1.56785
    A7        2.31412  -0.04075  -0.18938   0.00000  -0.18938   2.12474
    A8        1.90697  -0.01023   0.00272   0.00000   0.00272   1.90969
    A9        2.02368   0.00546  -0.01495   0.00000  -0.01495   2.00873
   A10        2.22191   0.00064   0.05432   0.00000   0.05432   2.27623
   A11        2.03760  -0.00610  -0.03937   0.00000  -0.03937   1.99823
   A12        3.19990  -0.00016  -0.39955   0.00000  -0.39955   2.80035
   A13        3.14408  -0.00006  -0.00033   0.00000  -0.00033   3.14375
    D1       -1.93913  -0.00067   0.01816   0.00000   0.01820  -1.92093
    D2        1.93467   0.00067  -0.01747   0.00000  -0.01751   1.91716
    D3       -0.00228   0.00001   0.00044   0.00000   0.00044  -0.00184
    D4       -1.15003  -0.00353  -0.02093   0.00000  -0.02087  -1.17090
    D5        1.14684   0.00352   0.02096   0.00000   0.02090   1.16774
    D6        3.14022  -0.00001  -0.00005   0.00000  -0.00005   3.14017
    D7       -0.00091   0.00000   0.00020   0.00000   0.00020  -0.00072
    D8       -3.14147   0.00000  -0.00006   0.00000  -0.00006  -3.14153
    D9        3.14134   0.00001   0.00027   0.00000   0.00027  -3.14158
         Item               Value     Threshold  Converged?
 Maximum Force            0.050838     0.000450     NO 
 RMS     Force            0.019198     0.000300     NO 
 Maximum Displacement     1.650727     0.001800     NO 
 RMS     Displacement     0.592172     0.001200     NO 
 Predicted change in Energy=-2.525454D-02
 GradGradGradGradGradGradGradGradGradGradGradGradGradGradGradGradGradGrad

                          Input orientation:                          
 ---------------------------------------------------------------------
 Center     Atomic      Atomic             Coordinates (Angstroms)
 Number     Number       Type             X           Y           Z
 ---------------------------------------------------------------------
      1         16           0       -2.145880   -0.920412    0.000280
      2          8           0       -2.187362   -1.710034   -1.407716
      3          8           0       -2.183921   -1.705560    1.410894
      4          8           0       -3.231676    0.490867   -0.000945
      5          1           0       -2.865210    1.461323   -0.001344
      6          8           0       -0.564044    0.304042   -0.003459
      7          9           0        0.707388   -0.516603   -0.001401
      8          8           0       -1.864300    2.644087    0.000899
      9          1           0       -0.924071    2.389548    0.002699
     10          1           0       -2.021722    3.600990    0.000819
 ---------------------------------------------------------------------
                    Distance matrix (angstroms):
                    1          2          3          4          5
     1  S    0.000000
     2  O    1.614830   0.000000
     3  O    1.614848   2.818615   0.000000
     4  O    1.780635   2.813105   2.813427   0.000000
     5  H    2.487991   3.534807   3.533797   1.037344   0.000000
     6  O    2.000377   2.943399   2.943281   2.674167   2.575785
     7  F    2.881701   3.432429   3.430432   4.065860   4.083583
     8  O    3.575603   4.587693   4.583631   2.550702   1.549438
     9  H    3.528265   4.515722   4.510005   2.988318   2.151660
    10  H    4.523106   5.497125   5.493096   3.337194   2.299925
                    6          7          8          9         10
     6  O    0.000000
     7  F    1.513275   0.000000
     8  O    2.677031   4.074745   0.000000
     9  H    2.116363   3.332775   0.974075   0.000000
    10  H    3.604817   4.939901   0.969766   1.634758   0.000000
 Stoichiometry    FH3O5S
 Framework group  C1[X(FH3O5S)]
 Deg. of freedom    24
 Full point group                 C1      NOp   1
 Largest Abelian subgroup         C1      NOp   1
 Largest concise Abelian subgroup C1      NOp   1
                         Standard orientation:                         
 ---------------------------------------------------------------------
 Center     Atomic      Atomic             Coordinates (Angstroms)
 Number     Number       Type             X           Y           Z
 ---------------------------------------------------------------------
      1         16           0        0.758758   -0.451055    0.000375
      2          8           0        1.549425   -0.473162   -1.407472
      3          8           0        1.544307   -0.470976    1.411137
      4          8           0       -0.626282   -1.570126   -0.001584
      5          1           0       -1.605184   -1.226857   -0.002039
      6          8           0       -0.502991    1.101197   -0.002986
      7          9           0        0.287166    2.391796   -0.000244
      8          8           0       -2.811432   -0.254377    0.000358
      9          1           0       -2.579340    0.691642    0.002590
     10          1           0       -3.764318   -0.434525    0.000014
 ---------------------------------------------------------------------
 Rotational constants (GHZ):      2.0394804      1.5797432      1.1469285
 Standard basis: 6-311G (5D, 7F)
 There are   108 symmetry adapted cartesian basis functions of A   symmetry.
 There are   108 symmetry adapted basis functions of A   symmetry.
   108 basis functions,   211 primitive gaussians,   108 cartesian basis functions
    34 alpha electrons       34 beta electrons
       nuclear repulsion energy       420.6279741027 Hartrees.



 Warning!  S  atom    1 may be hypervalent but has no d functions.



 NAtoms=   10 NActive=   10 NUniq=   10 SFac= 1.00D+00 NAtFMM=   60 NAOKFM=F Big=F
 Integral buffers will be    131072 words long.
 Raffenetti 2 integral format.
 Two-electron integral symmetry is turned on.
 One-electron integrals computed using PRISM.
 NBasis=   108 RedAO= T EigKep=  1.48D-02  NBF=   108
 NBsUse=   108 1.00D-06 EigRej= -1.00D+00 NBFU=   108
 Lowest energy guess from the checkpoint file:  "HFSO4-h2o.chk"
 B after Tr=     0.000000    0.000000    0.000000
         Rot=    0.994517   -0.000041    0.000036    0.104570 Ang= -12.00 deg.
 B after Tr=     0.000000    0.000000    0.000000
         Rot=    0.979833    0.000063   -0.000059   -0.199820 Ang=  23.05 deg.
 Keep R1 ints in memory in canonical form, NReq=18312089.
 Requested convergence on RMS density matrix=1.00D-08 within 128 cycles.
 Requested convergence on MAX density matrix=1.00D-06.
 Requested convergence on             energy=1.00D-06.
 No special actions if energy rises.
 Integral accuracy reduced to 1.0D-05 until final iterations.
 Initial convergence to 1.0D-05 achieved.  Increase integral accuracy.
 SCF Done:  E(RB3LYP) =  -875.620338760     A.U. after   14 cycles
            NFock= 14  Conv=0.76D-08     -V/T= 2.0021
 Calling FoFJK, ICntrl=      2127 FMM=F ISym2X=0 I1Cent= 0 IOpClX= 0 NMat=1 NMatS=1 NMatT=0.
 ***** Axes restored to original set *****
 -------------------------------------------------------------------
 Center     Atomic                   Forces (Hartrees/Bohr)
 Number     Number              X              Y              Z
 -------------------------------------------------------------------
      1       16          -0.000105382    0.009600680    0.000002736
      2        8          -0.000534423    0.006485988    0.010241729
      3        8          -0.000555971    0.006449977   -0.010255969
      4        8          -0.010403510   -0.013919988   -0.000034625
      5        1           0.020811680   -0.006528725    0.000070167
      6        8           0.013104438   -0.011305032    0.000001276
      7        9          -0.016699363    0.008512597   -0.000007812
      8        8          -0.003288138    0.004004444   -0.000004498
      9        1          -0.004358500    0.001354250   -0.000013257
     10        1           0.002029171   -0.004654191    0.000000254
 -------------------------------------------------------------------
 Cartesian Forces:  Max     0.020811680 RMS     0.007934320

 GradGradGradGradGradGradGradGradGradGradGradGradGradGradGradGradGradGrad
 Berny optimization.
 Using GEDIIS/GDIIS optimizer.
 FormGI is forming the generalized inverse of G from B-inverse, IUseBI=4.
 Internal  Forces:  Max     0.019848094 RMS     0.007348403
 Search for a local minimum.
 Step number   5 out of a maximum of   41
 All quantities printed in internal units (Hartrees-Bohrs-Radians)
 Mixed Optimization -- RFO/linear search
 Update second derivatives using D2CorX and points    3    5
 ITU=  0 -1  1  1  0
 Use linear search instead of GDIIS.
     Eigenvalues ---    0.00230   0.00230   0.01009   0.01020   0.01674
     Eigenvalues ---    0.02438   0.06286   0.12107   0.14248   0.15866
     Eigenvalues ---    0.16017   0.16984   0.17309   0.19751   0.22379
     Eigenvalues ---    0.25271   0.40814   0.44127   0.52344   0.55465
     Eigenvalues ---    0.55470   0.70709   1.03468   1.46473
 RFO step:  Lambda=-1.45305955D-02 EMin= 2.29998015D-03
 Quartic linear search produced a step of -0.21832.
 Maximum step size (   0.424) exceeded in Quadratic search.
    -- Step size scaled by   0.951
 Iteration  1 RMS(Cart)=  0.10236942 RMS(Int)=  0.01099644
 Iteration  2 RMS(Cart)=  0.01392010 RMS(Int)=  0.00055622
 Iteration  3 RMS(Cart)=  0.00007122 RMS(Int)=  0.00055549
 Iteration  4 RMS(Cart)=  0.00000002 RMS(Int)=  0.00055549
 Variable       Old X    -DE/DX   Delta X   Delta X   Delta X     New X
                                 (Linear)    (Quad)   (Total)
    R1        3.05159  -0.01209  -0.01278  -0.12040  -0.13318   2.91841
    R2        3.05162  -0.01208  -0.01278  -0.12040  -0.13318   2.91844
    R3        3.36491  -0.01856  -0.01134  -0.13550  -0.14684   3.21807
    R4        3.78016  -0.00454  -0.01833  -0.23734  -0.25567   3.52449
    R5        1.96030  -0.00009  -0.00531  -0.03105  -0.03636   1.92393
    R6        2.92801  -0.00311   0.00797   0.19347   0.20144   3.12945
    R7        2.85968  -0.01865  -0.00462  -0.10317  -0.10779   2.75189
    R8        1.84074  -0.00457  -0.00058  -0.01630  -0.01689   1.82385
    R9        1.83259  -0.00492  -0.00033  -0.01373  -0.01405   1.81854
    A1        2.12150   0.00099   0.00104   0.00320   0.00288   2.12438
    A2        1.95119  -0.00212   0.00041  -0.03510  -0.03583   1.91537
    A3        1.89441  -0.00037   0.00102  -0.01198  -0.01051   1.88390
    A4        1.95152  -0.00213   0.00041  -0.03521  -0.03595   1.91557
    A5        1.89428  -0.00036   0.00102  -0.01179  -0.01032   1.88396
    A6        1.56785   0.00535  -0.00577   0.12763   0.12200   1.68985
    A7        2.12474  -0.01985  -0.01354  -0.00843  -0.02197   2.10277
    A8        1.90969  -0.00542   0.00019  -0.03686  -0.03666   1.87303
    A9        2.00873  -0.00055  -0.00107  -0.00354  -0.00461   2.00411
   A10        2.27623   0.00141   0.00388   0.05500   0.05888   2.33511
   A11        1.99823  -0.00086  -0.00282  -0.05145  -0.05427   1.94396
   A12        2.80035   0.01200  -0.02857  -0.02489  -0.05346   2.74689
   A13        3.14375  -0.00005  -0.00002  -0.00333  -0.00336   3.14039
    D1       -1.92093  -0.00158   0.00129  -0.03613  -0.03335  -1.95429
    D2        1.91716   0.00156  -0.00124   0.03643   0.03370   1.95086
    D3       -0.00184  -0.00002   0.00003   0.00003   0.00007  -0.00177
    D4       -1.17090  -0.00037  -0.00151   0.00688   0.00574  -1.16516
    D5        1.16774   0.00035   0.00151  -0.00768  -0.00654   1.16120
    D6        3.14017  -0.00001   0.00000  -0.00045  -0.00045   3.13973
    D7       -0.00072   0.00001   0.00001   0.00056   0.00056  -0.00015
    D8       -3.14153   0.00000   0.00000  -0.00019  -0.00018   3.14147
    D9       -3.14158   0.00000   0.00002   0.00066   0.00066  -3.14091
         Item               Value     Threshold  Converged?
 Maximum Force            0.019848     0.000450     NO 
 RMS     Force            0.007348     0.000300     NO 
 Maximum Displacement     0.222846     0.001800     NO 
 RMS     Displacement     0.106559     0.001200     NO 
 Predicted change in Energy=-3.926107D-03
 GradGradGradGradGradGradGradGradGradGradGradGradGradGradGradGradGradGrad

                          Input orientation:                          
 ---------------------------------------------------------------------
 Center     Atomic      Atomic             Coordinates (Angstroms)
 Number     Number       Type             X           Y           Z
 ---------------------------------------------------------------------
      1         16           0       -2.080665   -0.846807    0.000066
      2          8           0       -2.128424   -1.597882   -1.348504
      3          8           0       -2.125829   -1.596945    1.349266
      4          8           0       -3.231602    0.408308    0.000551
      5          1           0       -2.933951    1.381927    0.001383
      6          8           0       -0.566052    0.241528   -0.001834
      7          9           0        0.597195   -0.634528    0.000088
      8          8           0       -1.878046    2.657669   -0.000006
      9          1           0       -0.944870    2.411346   -0.000256
     10          1           0       -1.988554    3.613632   -0.000028
 ---------------------------------------------------------------------
                    Distance matrix (angstroms):
                    1          2          3          4          5
     1  S    0.000000
     2  O    1.544356   0.000000
     3  O    1.544373   2.697772   0.000000
     4  O    1.702930   2.657395   2.657594   0.000000
     5  H    2.386495   3.369025   3.368016   1.018101   0.000000
     6  O    1.865082   2.763685   2.763758   2.670764   2.628206
     7  F    2.686261   3.189945   3.187694   3.968274   4.066336
     8  O    3.510329   4.471113   4.470311   2.625212   1.656036
     9  H    3.450449   4.392321   4.391158   3.039952   2.239677
    10  H    4.461390   5.384963   5.384195   3.437916   2.423692
                    6          7          8          9         10
     6  O    0.000000
     7  F    1.456236   0.000000
     8  O    2.749376   4.118906   0.000000
     9  H    2.202638   3.413988   0.965139   0.000000
    10  H    3.659863   4.973224   0.962328   1.592096   0.000000
 Stoichiometry    FH3O5S
 Framework group  C1[X(FH3O5S)]
 Deg. of freedom    24
 Full point group                 C1      NOp   1
 Largest Abelian subgroup         C1      NOp   1
 Largest concise Abelian subgroup C1      NOp   1
                         Standard orientation:                         
 ---------------------------------------------------------------------
 Center     Atomic      Atomic             Coordinates (Angstroms)
 Number     Number       Type             X           Y           Z
 ---------------------------------------------------------------------
      1         16           0        0.648275   -0.471959    0.000085
      2          8           0        1.392649   -0.582872   -1.348486
      3          8           0        1.391934   -0.580207    1.349285
      4          8           0       -0.699408   -1.512979    0.000570
      5          1           0       -1.644465   -1.134301    0.001401
      6          8           0       -0.308487    1.129019   -0.001815
      7          9           0        0.662524    2.214264    0.000106
      8          8           0       -2.826641    0.025403    0.000013
      9          1           0       -2.502518    0.934489   -0.000237
     10          1           0       -3.788517   -0.004114   -0.000009
 ---------------------------------------------------------------------
 Rotational constants (GHZ):      2.2127253      1.6726670      1.2203518
 Standard basis: 6-311G (5D, 7F)
 There are   108 symmetry adapted cartesian basis functions of A   symmetry.
 There are   108 symmetry adapted basis functions of A   symmetry.
   108 basis functions,   211 primitive gaussians,   108 cartesian basis functions
    34 alpha electrons       34 beta electrons
       nuclear repulsion energy       437.0246091384 Hartrees.



 Warning!  S  atom    1 may be hypervalent but has no d functions.



 NAtoms=   10 NActive=   10 NUniq=   10 SFac= 1.00D+00 NAtFMM=   60 NAOKFM=F Big=F
 Integral buffers will be    131072 words long.
 Raffenetti 2 integral format.
 Two-electron integral symmetry is turned on.
 One-electron integrals computed using PRISM.
 NBasis=   108 RedAO= T EigKep=  1.14D-02  NBF=   108
 NBsUse=   108 1.00D-06 EigRej= -1.00D+00 NBFU=   108
 Initial guess from the checkpoint file:  "HFSO4-h2o.chk"
 B after Tr=     0.000000    0.000000    0.000000
         Rot=    0.998389    0.000021   -0.000244    0.056738 Ang=   6.51 deg.
 ExpMin= 7.71D-02 ExpMax= 9.34D+04 ExpMxC= 3.17D+03 IAcc=2 IRadAn=         4 AccDes= 0.00D+00
 Harris functional with IExCor=  402 and IRadAn=       4 diagonalized for initial guess.
 HarFok:  IExCor=  402 AccDes= 0.00D+00 IRadAn=         4 IDoV= 1 UseB2=F ITyADJ=14
 ICtDFT=  3500011 ScaDFX=  1.000000  1.000000  1.000000  1.000000
 FoFCou: FMM=F IPFlag=           0 FMFlag=      100000 FMFlg1=           0
         NFxFlg=           0 DoJE=T BraDBF=F KetDBF=T FulRan=T
         wScrn=  0.000000 ICntrl=     500 IOpCl=  0 I1Cent=   200000004 NGrid=           0
         NMat0=    1 NMatS0=      1 NMatT0=    0 NMatD0=    1 NMtDS0=    0 NMtDT0=    0
 Petite list used in FoFCou.
 Keep R1 ints in memory in canonical form, NReq=18312089.
 Requested convergence on RMS density matrix=1.00D-08 within 128 cycles.
 Requested convergence on MAX density matrix=1.00D-06.
 Requested convergence on             energy=1.00D-06.
 No special actions if energy rises.
 Integral accuracy reduced to 1.0D-05 until final iterations.
 Initial convergence to 1.0D-05 achieved.  Increase integral accuracy.
 SCF Done:  E(RB3LYP) =  -875.614577817     A.U. after   15 cycles
            NFock= 15  Conv=0.53D-08     -V/T= 2.0014
 Calling FoFJK, ICntrl=      2127 FMM=F ISym2X=0 I1Cent= 0 IOpClX= 0 NMat=1 NMatS=1 NMatT=0.
 ***** Axes restored to original set *****
 -------------------------------------------------------------------
 Center     Atomic                   Forces (Hartrees/Bohr)
 Number     Number              X              Y              Z
 -------------------------------------------------------------------
      1       16          -0.012726166    0.000947331    0.000026982
      2        8           0.000294672   -0.016000530   -0.030407306
      3        8           0.000368982   -0.015977707    0.030420227
      4        8          -0.016186353    0.014871355   -0.000004149
      5        1           0.015252596   -0.000481131   -0.000030231
      6        8           0.009282235    0.028236737   -0.000047539
      7        9           0.009175423   -0.007927087    0.000020014
      8        8          -0.005671574   -0.003010325    0.000027188
      9        1           0.004252389   -0.004082279   -0.000003086
     10        1          -0.004042203    0.003423636   -0.000002100
 -------------------------------------------------------------------
 Cartesian Forces:  Max     0.030420227 RMS     0.012076072

 GradGradGradGradGradGradGradGradGradGradGradGradGradGradGradGradGradGrad
 Berny optimization.
 Using GEDIIS/GDIIS optimizer.
 FormGI is forming the generalized inverse of G from B-inverse, IUseBI=4.
 Internal  Forces:  Max     0.034325072 RMS     0.011413213
 Search for a local minimum.
 Step number   6 out of a maximum of   41
 All quantities printed in internal units (Hartrees-Bohrs-Radians)
 Mixed Optimization -- RFO/linear search
 Update second derivatives using D2CorX and points    3    6    5
 DE=  5.76D-03 DEPred=-3.93D-03 R=-1.47D+00
 Trust test=-1.47D+00 RLast= 4.56D-01 DXMaxT set to 2.12D-01
 ITU= -1  0 -1  1  1  0
 Use linear search instead of GDIIS.
 Energy rises -- skip Quadratic/GDIIS search.
 Quartic linear search produced a step of -0.66361.
 Iteration  1 RMS(Cart)=  0.06940212 RMS(Int)=  0.00126997
 Iteration  2 RMS(Cart)=  0.00298997 RMS(Int)=  0.00012361
 Iteration  3 RMS(Cart)=  0.00000286 RMS(Int)=  0.00012360
 Iteration  4 RMS(Cart)=  0.00000000 RMS(Int)=  0.00012360
 Variable       Old X    -DE/DX   Delta X   Delta X   Delta X     New X
                                 (Linear)    (Quad)   (Total)
    R1        2.91841   0.03432   0.08838   0.00000   0.08838   3.00679
    R2        2.91844   0.03433   0.08838   0.00000   0.08838   3.00682
    R3        3.21807   0.01221   0.09744   0.00000   0.09744   3.31552
    R4        3.52449   0.02682   0.16966   0.00000   0.16966   3.69416
    R5        1.92393  -0.00109   0.02413   0.00000   0.02413   1.94806
    R6        3.12945  -0.00629  -0.13368   0.00000  -0.13368   2.99578
    R7        2.75189   0.01210   0.07153   0.00000   0.07153   2.82342
    R8        1.82385   0.00516   0.01121   0.00000   0.01121   1.83506
    R9        1.81854   0.00386   0.00933   0.00000   0.00933   1.82786
    A1        2.12438   0.00103  -0.00191   0.00000  -0.00161   2.12278
    A2        1.91537   0.00397   0.02377   0.00000   0.02404   1.93941
    A3        1.88390   0.00138   0.00697   0.00000   0.00686   1.89077
    A4        1.91557   0.00398   0.02386   0.00000   0.02413   1.93969
    A5        1.88396   0.00136   0.00685   0.00000   0.00674   1.89070
    A6        1.68985  -0.01577  -0.08096   0.00000  -0.08100   1.60885
    A7        2.10277  -0.01332   0.01458   0.00000   0.01458   2.11735
    A8        1.87303  -0.00227   0.02433   0.00000   0.02433   1.89736
    A9        2.00411  -0.00129   0.00306   0.00000   0.00306   2.00717
   A10        2.33511  -0.00263  -0.03908   0.00000  -0.03908   2.29604
   A11        1.94396   0.00393   0.03601   0.00000   0.03601   1.97997
   A12        2.74689   0.00710   0.03548   0.00000   0.03548   2.78237
   A13        3.14039   0.00004   0.00223   0.00000   0.00223   3.14262
    D1       -1.95429   0.00426   0.02213   0.00000   0.02182  -1.93247
    D2        1.95086  -0.00428  -0.02236   0.00000  -0.02205   1.92882
    D3       -0.00177   0.00000  -0.00004   0.00000  -0.00005  -0.00182
    D4       -1.16516  -0.00170  -0.00381   0.00000  -0.00388  -1.16904
    D5        1.16120   0.00169   0.00434   0.00000   0.00441   1.16561
    D6        3.13973   0.00000   0.00030   0.00000   0.00029   3.14002
    D7       -0.00015   0.00000  -0.00037   0.00000  -0.00037  -0.00052
    D8        3.14147   0.00000   0.00012   0.00000   0.00012   3.14159
    D9       -3.14091  -0.00001  -0.00044   0.00000  -0.00044  -3.14135
         Item               Value     Threshold  Converged?
 Maximum Force            0.034325     0.000450     NO 
 RMS     Force            0.011413     0.000300     NO 
 Maximum Displacement     0.143519     0.001800     NO 
 RMS     Displacement     0.070417     0.001200     NO 
 Predicted change in Energy=-2.472402D-03
 GradGradGradGradGradGradGradGradGradGradGradGradGradGradGradGradGradGrad

[...]
   138. RY*(   4) H   9                  0.00034     1.74238   
   139. RY*(   5) H   9                  0.00001     2.45523   
   140. RY*(   1) H  10                  0.00230     0.63770   
   141. RY*(   2) H  10                  0.00122     1.45491   
   142. RY*(   3) H  10                  0.00045     1.83099   
   143. RY*(   4) H  10                  0.00019     1.58380   
   144. RY*(   5) H  10                  0.00001     2.45026   
   151. BD*(   1) O   8 - H   9          0.00190     0.36228   
   152. BD*(   1) O   8 - H  10          0.00244     0.36194   
       -------------------------------
              Total Lewis    9.89897  ( 99.8513%)
        Valence non-Lewis    0.00434  (  0.0438%)
        Rydberg non-Lewis    0.01040  (  0.1049%)
       -------------------------------
            Total unit  2    9.91371  (100.0000%)
           Charge unit  2    0.08629
 1\1\GINC-BLADI34\SP\RB3LYP\6-311G(d,p)\F1H3O5S1\ROOT\21-Jun-2017\0\\# 
 B3LYP/6-311G** geom=check guess=read pop=nboread\\Title Card Required\
 \0,1\S,0,-2.155553567,-0.799885571,-0.0968126531\O,0,-2.4121487107,-2.
 1011279162,-0.9780131676\O,0,-2.1480773616,-0.8236105232,1.5036090499\
 O,0,-3.048140878,0.5278018355,-0.790178817\H,0,-2.6756287379,1.4116861
 298,-0.3788782354\O,0,-0.4608004984,0.0758688755,-0.6422441911\F,0,0.5
 872072877,-0.4453188689,0.2663343034\O,0,-1.8832542161,2.5231065729,0.
 2023694688\H,0,-0.9226520041,2.4393268215,0.1179614149\H,0,-2.16174990
 38,3.2304010141,0.7965791037\\Version=AM64L-G09RevD.01\State=1-A\HF=-8
 75.8551562\RMSD=8.501e-09\Dipole=0.096343,2.2522555,0.4476326\Quadrupo
 le=-2.8257266,7.2621339,-4.4364073,-0.162308,-0.9702747,2.9290146\PG=C
 01 [X(F1H3O5S1)]\\@


 THERE IS MUCH PLEASURE TO BE GAINED FROM USELESS KNOWLEDGE

                                       -- BERTRAND RUSSELL
 Job cpu time:       0 days  0 hours  4 minutes 52.3 seconds.
 File lengths (MBytes):  RWF=     11 Int=      0 D2E=      0 Chk=      5 Scr=      1
 Normal termination of Gaussian 09 at Wed Jun 21 02:16:45 2017.
 Initial command:
 /usr/local/gaussian/gaussian09.d1/g09/l1.exe "/scratch/sarariop/HFSO4-h2o.com/Gau-20289.inp" -scrdir="/scratch/sarariop/HFSO4-h2o.com/"
 Default is to use a total of   8 processors:
                                8 via shared-memory
                                1 via Linda
 Entering Link 1 = /usr/local/gaussian/gaussian09.d1/g09/l1.exe PID=     27329.
  
 Copyright (c) 1988,1990,1992,1993,1995,1998,2003,2009,2013,
            Gaussian, Inc.  All Rights Reserved.
  
 This is part of the Gaussian(R) 09 program.  It is based on
 the Gaussian(R) 03 system (copyright 2003, Gaussian, Inc.),
 the Gaussian(R) 98 system (copyright 1998, Gaussian, Inc.),
 the Gaussian(R) 94 system (copyright 1995, Gaussian, Inc.),
 the Gaussian 92(TM) system (copyright 1992, Gaussian, Inc.),
 the Gaussian 90(TM) system (copyright 1990, Gaussian, Inc.),
 the Gaussian 88(TM) system (copyright 1988, Gaussian, Inc.),
 the Gaussian 86(TM) system (copyright 1986, Carnegie Mellon
 University), and the Gaussian 82(TM) system (copyright 1983,
 Carnegie Mellon University). Gaussian is a federally registered
 trademark of Gaussian, Inc.
  
 This software contains proprietary and confidential information,
 including trade secrets, belonging to Gaussian, Inc.
  
 This software is provided under written license and may be
 used, copied, transmitted, or stored only in accord with that
 written license.
  
 The following legend is applicable only to US Government
 contracts under FAR:
  
                    RESTRICTED RIGHTS LEGEND
  
 Use, reproduction and disclosure by the US Government is
 subject to restrictions as set forth in subparagraphs (a)
 and (c) of the Commercial Computer Software - Restricted
 Rights clause in FAR 52.227-19.
  
 Gaussian, Inc.
 340 Quinnipiac St., Bldg. 40, Wallingford CT 06492
  
  
 ---------------------------------------------------------------
 Warning -- This program may not be used in any manner that
 competes with the business of Gaussian, Inc. or will provide
 assistance to any competitor of Gaussian, Inc.  The licensee
 of this program is prohibited from giving any competitor of
 Gaussian, Inc. access to this program.  By using this program,
 the user acknowledges that Gaussian, Inc. is engaged in the
 business of creating and licensing software in the field of
 computational chemistry and represents and warrants to the
 licensee that it is not a competitor of Gaussian, Inc. and that
 it will not use this program in any manner prohibited above.
 ---------------------------------------------------------------
  

 Cite this work as:
 Gaussian 09, Revision D.01,
 M. J. Frisch, G. W. Trucks, H. B. Schlegel, G. E. Scuseria, 
 M. A. Robb, J. R. Cheeseman, G. Scalmani, V. Barone, B. Mennucci, 
 G. A. Petersson, H. Nakatsuji, M. Caricato, X. Li, H. P. Hratchian, 
 A. F. Izmaylov, J. Bloino, G. Zheng, J. L. Sonnenberg, M. Hada, 
 M. Ehara, K. Toyota, R. Fukuda, J. Hasegawa, M. Ishida, T. Nakajima, 
 Y. Honda, O. Kitao, H. Nakai, T. Vreven, J. A. Montgomery, Jr., 
 J. E. Peralta, F. Ogliaro, M. Bearpark, J. J. Heyd, E. Brothers, 
 K. N. Kudin, V. N. Staroverov, T. Keith, R. Kobayashi, J. Normand, 
 K. Raghavachari, A. Rendell, J. C. Burant, S. S. Iyengar, J. Tomasi, 
 M. Cossi, N. Rega, J. M. Millam, M. Klene, J. E. Knox, J. B. Cross, 
 V. Bakken, C. Adamo, J. Jaramillo, R. Gomperts, R. E. Stratmann, 
 O. Yazyev, A. J. Austin, R. Cammi, C. Pomelli, J. W. Ochterski, 
 R. L. Martin, K. Morokuma, V. G. Zakrzewski, G. A. Voth, 
 P. Salvador, J. J. Dannenberg, S. Dapprich, A. D. Daniels, 
 O. Farkas, J. B. Foresman, J. V. Ortiz, J. Cioslowski, 
 and D. J. Fox, Gaussian, Inc., Wallingford CT, 2013.
 
 ******************************************
 Gaussian 09:  AM64L-G09RevD.01 24-Apr-2013
                21-Jun-2017 
 ******************************************
 %chk=HFSO4-h2o.chk
 Default route:  MaxDisk=56GB
 -------------------------------------------------
 # B3LYP/6-311G** geom=check guess=read output=wfx
 -------------------------------------------------
 1/29=2,38=1/1;
 2/12=2,40=1/2;
 3/5=4,6=6,7=101,11=2,14=-4,16=1,25=1,30=1,74=-5,116=-2/1,2,3;
 4/5=1/1;
 5/5=2,38=6/2;
 6/7=2,8=2,9=2,10=2,28=1/1;
 99/5=1,6=200,9=1/99;
 -------------------
 Title Card Required
 -------------------
 Structure from the checkpoint file:  "HFSO4-h2o.chk"
 Charge =  0 Multiplicity = 1
 Redundant internal coordinates found in file.
 S,0,-2.155553567,-0.799885571,-0.0968126531
 O,0,-2.4121487107,-2.1011279162,-0.9780131676
 O,0,-2.1480773616,-0.8236105232,1.5036090499
 O,0,-3.048140878,0.5278018355,-0.790178817
 H,0,-2.6756287379,1.4116861298,-0.3788782354
 O,0,-0.4608004984,0.0758688755,-0.6422441911
 F,0,0.5872072877,-0.4453188689,0.2663343034
 O,0,-1.8832542161,2.5231065729,0.2023694688
 H,0,-0.9226520041,2.4393268215,0.1179614149
 H,0,-2.1617499038,3.2304010141,0.7965791037
 Recover connectivity data from disk.
                          Input orientation:                          
 ---------------------------------------------------------------------
 Center     Atomic      Atomic             Coordinates (Angstroms)
 Number     Number       Type             X           Y           Z
 ---------------------------------------------------------------------
      1         16           0       -2.155554   -0.799886   -0.096813
      2          8           0       -2.412149   -2.101128   -0.978013
      3          8           0       -2.148077   -0.823611    1.503609
      4          8           0       -3.048141    0.527802   -0.790179
      5          1           0       -2.675629    1.411686   -0.378878
      6          8           0       -0.460800    0.075869   -0.642244
      7          9           0        0.587207   -0.445319    0.266334
      8          8           0       -1.883254    2.523107    0.202369
      9          1           0       -0.922652    2.439327    0.117961
     10          1           0       -2.161750    3.230401    0.796579
 ---------------------------------------------------------------------
                    Distance matrix (angstroms):
                    1          2          3          4          5
     1  S    0.000000
     2  O    1.592353   0.000000
     3  O    1.600615   2.803611   0.000000
     4  O    1.743623   2.711280   2.810319   0.000000
     5  H    2.289342   3.573268   2.969616   1.043640   0.000000
     6  O    1.984094   2.942756   2.874135   2.630676   2.599853
     7  F    2.789324   3.645030   3.025845   3.908828   3.809313
     8  O    3.347526   4.801726   3.600538   2.514628   1.483564
     9  H    3.472560   4.902600   3.750793   2.999392   2.091847
    10  H    4.128123   5.624685   4.115226   3.256921   2.225645
                    6          7          8          9         10
     6  O    0.000000
     7  F    1.481712   0.000000
     8  O    2.953933   3.862489   0.000000
     9  H    2.525303   3.259275   0.967936   0.000000
    10  H    3.861931   4.620481   0.964837   1.619161   0.000000
 Stoichiometry    FH3O5S
 Framework group  C1[X(FH3O5S)]
 Deg. of freedom    24
 Full point group                 C1      NOp   1
 Largest Abelian subgroup         C1      NOp   1
 Largest concise Abelian subgroup C1      NOp   1
                         Standard orientation:                         
 ---------------------------------------------------------------------
 Center     Atomic      Atomic             Coordinates (Angstroms)
 Number     Number       Type             X           Y           Z
 ---------------------------------------------------------------------
      1         16           0        0.713798   -0.406925    0.103591
      2          8           0        2.116850   -0.672618   -0.600995
      3          8           0        0.566743   -0.160228    1.678228
      4          8           0       -0.462007   -1.508717   -0.562562
      5          1           0       -1.410020   -1.160788   -0.299120
      6          8           0       -0.223693    1.102113   -0.779893
      7          9           0        0.117941    2.315970   -0.001877
      8          8           0       -2.633183   -0.394748    0.044416
      9          1           0       -2.613199    0.546332   -0.181123
     10          1           0       -3.376707   -0.644876    0.606126
 ---------------------------------------------------------------------
 Rotational constants (GHZ):      2.0923792      1.7129762      1.2521472
 Standard basis: 6-311G(d,p) (5D, 7F)
 There are   159 symmetry adapted cartesian basis functions of A   symmetry.
 There are   152 symmetry adapted basis functions of A   symmetry.
   152 basis functions,   262 primitive gaussians,   159 cartesian basis functions
    34 alpha electrons       34 beta electrons
       nuclear repulsion energy       429.8606476504 Hartrees.
 NAtoms=   10 NActive=   10 NUniq=   10 SFac= 1.00D+00 NAtFMM=   60 NAOKFM=F Big=F
 Integral buffers will be    131072 words long.
 Raffenetti 2 integral format.
 Two-electron integral symmetry is turned on.
 One-electron integrals computed using PRISM.
 NBasis=   152 RedAO= T EigKep=  1.23D-02  NBF=   152
 NBsUse=   152 1.00D-06 EigRej= -1.00D+00 NBFU=   152
 Initial guess from the checkpoint file:  "HFSO4-h2o.chk"
 B after Tr=     0.000000    0.000000    0.000000
         Rot=    1.000000    0.000000    0.000000    0.000000 Ang=   0.00 deg.
 Keep R1 ints in memory in canonical form, NReq=69755771.
 Requested convergence on RMS density matrix=1.00D-08 within 128 cycles.
 Requested convergence on MAX density matrix=1.00D-06.
 Requested convergence on             energy=1.00D-06.
 No special actions if energy rises.
 SCF Done:  E(RB3LYP) =  -875.855156193     A.U. after    2 cycles
            NFock=  2  Conv=0.73D-08     -V/T= 2.0030

 **********************************************************************

            Population analysis using the SCF density.

 **********************************************************************

 Orbital symmetries:
       Occupied  (A) (A) (A) (A) (A) (A) (A) (A) (A) (A) (A) (A)
                 (A) (A) (A) (A) (A) (A) (A) (A) (A) (A) (A) (A)
                 (A) (A) (A) (A) (A) (A) (A) (A) (A) (A)
       Virtual   (A) (A) (A) (A) (A) (A) (A) (A) (A) (A) (A) (A)
                 (A) (A) (A) (A) (A) (A) (A) (A) (A) (A) (A) (A)
                 (A) (A) (A) (A) (A) (A) (A) (A) (A) (A) (A) (A)
                 (A) (A) (A) (A) (A) (A) (A) (A) (A) (A) (A) (A)
                 (A) (A) (A) (A) (A) (A) (A) (A) (A) (A) (A) (A)
                 (A) (A) (A) (A) (A) (A) (A) (A) (A) (A) (A) (A)
                 (A) (A) (A) (A) (A) (A) (A) (A) (A) (A) (A) (A)
                 (A) (A) (A) (A) (A) (A) (A) (A) (A) (A) (A) (A)
                 (A) (A) (A) (A) (A) (A) (A) (A) (A) (A) (A) (A)
                 (A) (A) (A) (A) (A) (A) (A) (A) (A) (A)
 The electronic state is 1-A.
 Alpha  occ. eigenvalues --  -89.13665 -24.72715 -19.26662 -19.20441 -19.19325
 Alpha  occ. eigenvalues --  -19.19273 -19.19160  -8.19344  -6.15645  -6.15587
 Alpha  occ. eigenvalues --   -6.15452  -1.23850  -1.11874  -1.08635  -1.03451
 Alpha  occ. eigenvalues --   -1.01441  -0.96246  -0.70999  -0.62204  -0.58462
 Alpha  occ. eigenvalues --   -0.55003  -0.51247  -0.50769  -0.48923  -0.47515
 Alpha  occ. eigenvalues --   -0.44206  -0.41868  -0.38903  -0.38069  -0.37384
 Alpha  occ. eigenvalues --   -0.35868  -0.35689  -0.34486  -0.33542
 Alpha virt. eigenvalues --   -0.14980  -0.10445  -0.07935  -0.01448  -0.00177
 Alpha virt. eigenvalues --    0.04492   0.06517   0.14849   0.18402   0.19480
 Alpha virt. eigenvalues --    0.21809   0.30218   0.33191   0.34825   0.42734
 Alpha virt. eigenvalues --    0.52336   0.53953   0.64695   0.66092   0.68308
 Alpha virt. eigenvalues --    0.70178   0.72826   0.75005   0.78946   0.80211
 Alpha virt. eigenvalues --    0.82534   0.84449   0.85286   0.86065   0.86760
 Alpha virt. eigenvalues --    0.87551   0.92107   0.95525   0.97263   0.99083
 Alpha virt. eigenvalues --    1.01009   1.04360   1.09649   1.14764   1.18859
 Alpha virt. eigenvalues --    1.23456   1.25000   1.32310   1.35572   1.41181
 Alpha virt. eigenvalues --    1.46779   1.47871   1.53325   1.54942   1.59752
 Alpha virt. eigenvalues --    1.63209   1.66220   1.72825   1.90746   1.94780
 Alpha virt. eigenvalues --    2.18734   2.30844   2.44514   2.47180   2.70212
 Alpha virt. eigenvalues --    2.72152   2.73250   2.74229   2.74457   2.77608
 Alpha virt. eigenvalues --    2.77773   2.77810   2.78346   2.81592   2.83222
 Alpha virt. eigenvalues --    2.84317   2.89339   2.94095   3.01012   3.02980
 Alpha virt. eigenvalues --    3.04376   3.07664   3.10576   3.23302   3.27227
 Alpha virt. eigenvalues --    3.32640   3.60393   3.66860   3.73263   3.76272
 Alpha virt. eigenvalues --    3.76359   3.79915   3.80327   4.07938   4.67916
 Alpha virt. eigenvalues --    4.68974   4.72147   4.72738   4.74606   4.76556
 Alpha virt. eigenvalues --    4.77540   4.79230   4.85725   4.89021   4.91997
 Alpha virt. eigenvalues --    4.99029   5.07581   5.52816   5.58651   6.00872
 Alpha virt. eigenvalues --    6.03367   6.14826   7.58048  17.05818  17.13715
 Alpha virt. eigenvalues --   17.16733  49.61793  49.69576  49.69854  49.76279
 Alpha virt. eigenvalues --   49.81607  66.59422 188.59259
          Condensed to atoms (all electrons):
               1          2          3          4          5          6
     1  S   13.927574   0.357185   0.334306   0.161831  -0.025966   0.078067
     2  O    0.357185   8.107578  -0.023816  -0.025870  -0.000453  -0.016229
     3  O    0.334306  -0.023816   8.155083  -0.023245   0.000849  -0.020027
     4  O    0.161831  -0.025870  -0.023245   8.152028   0.269742  -0.017568
     5  H   -0.025966  -0.000453   0.000849   0.269742   0.305813   0.002955
     6  O    0.078067  -0.016229  -0.020027  -0.017568   0.002955   8.139085
     7  F   -0.005342   0.000223   0.001843   0.000334  -0.000338   0.034827
     8  O    0.002859  -0.000011  -0.000320  -0.042874   0.089081  -0.001479
     9  H    0.000483   0.000019   0.000090   0.003959  -0.010475   0.009992
    10  H    0.001113   0.000004   0.000107   0.002322  -0.006313  -0.000146
               7          8          9         10
     1  S   -0.005342   0.002859   0.000483   0.001113
     2  O    0.000223  -0.000011   0.000019   0.000004
     3  O    0.001843  -0.000320   0.000090   0.000107
     4  O    0.000334  -0.042874   0.003959   0.002322
     5  H   -0.000338   0.089081  -0.010475  -0.006313
     6  O    0.034827  -0.001479   0.009992  -0.000146
     7  F    9.098423  -0.000026   0.000601  -0.000010
     8  O   -0.000026   7.828400   0.316757   0.320296
     9  H    0.000601   0.316757   0.386865  -0.018574
    10  H   -0.000010   0.320296  -0.018574   0.397629
 Mulliken charges:
               1
     1  S    1.167892
     2  O   -0.398630
     3  O   -0.424869
     4  O   -0.480658
     5  H    0.375103
     6  O   -0.209476
     7  F   -0.130534
     8  O   -0.512683
     9  H    0.310284
    10  H    0.303572
 Sum of Mulliken charges =   0.00000
 Mulliken charges with hydrogens summed into heavy atoms:
               1
     1  S    1.167892
     2  O   -0.398630
     3  O   -0.424869
     4  O   -0.105554
     6  O   -0.209476
     7  F   -0.130534
     8  O    0.101173
 Electronic spatial extent (au):  <R**2>=            971.2812
 Charge=              0.0000 electrons
 Dipole moment (field-independent basis, Debye):
    X=             -5.8153    Y=             -0.1076    Z=              0.5451  Tot=              5.8418
 Quadrupole moment (field-independent basis, Debye-Ang):
   XX=            -34.5647   YY=            -49.0404   ZZ=            -50.9608
   XY=              1.0716   XZ=             -2.2782   YZ=             -1.8221
 Traceless Quadrupole moment (field-independent basis, Debye-Ang):
   XX=             10.2906   YY=             -4.1851   ZZ=             -6.1055
   XY=              1.0716   XZ=             -2.2782   YZ=             -1.8221
 Octapole moment (field-independent basis, Debye-Ang**2):
  XXX=            -72.1652  YYY=              9.7175  ZZZ=             -4.7551  XYY=             -7.0237
  XXY=              3.7528  XXZ=             13.6191  XZZ=             -7.1689  YZZ=              4.2596
  YYZ=              4.1396  XYZ=              2.4226
 Hexadecapole moment (field-independent basis, Debye-Ang**3):
 XXXX=           -360.3043 YYYY=           -360.3752 ZZZZ=           -186.1453 XXXY=             24.7632
 XXXZ=            -39.2056 YYYX=              4.8704 YYYZ=             -2.7564 ZZZX=             -6.2788
 ZZZY=              0.4197 XXYY=           -130.8944 XXZZ=           -113.4578 YYZZ=            -89.3021
 XXYZ=            -13.1173 YYXZ=             -0.5634 ZZXY=              3.1218
 N-N= 4.298606476504D+02 E-N=-2.936722545714D+03  KE= 8.732680446782D+02
 1\1\GINC-BLADI34\SP\RB3LYP\6-311G(d,p)\F1H3O5S1\ROOT\21-Jun-2017\0\\# 
 B3LYP/6-311G** geom=check guess=read output=wfx\\Title Card Required\\
 0,1\S,0,-2.155553567,-0.799885571,-0.0968126531\O,0,-2.4121487107,-2.1
 011279162,-0.9780131676\O,0,-2.1480773616,-0.8236105232,1.5036090499\O
 ,0,-3.048140878,0.5278018355,-0.790178817\H,0,-2.6756287379,1.41168612
 98,-0.3788782354\O,0,-0.4608004984,0.0758688755,-0.6422441911\F,0,0.58
 72072877,-0.4453188689,0.2663343034\O,0,-1.8832542161,2.5231065729,0.2
 023694688\H,0,-0.9226520041,2.4393268215,0.1179614149\H,0,-2.161749903
 8,3.2304010141,0.7965791037\\Version=AM64L-G09RevD.01\State=1-A\HF=-87
 5.8551562\RMSD=7.314e-09\Dipole=0.0963453,2.252255,0.4476334\Quadrupol
 e=-2.8257236,7.2621342,-4.4364106,-0.1623079,-0.9702754,2.9290154\PG=C
 01 [X(F1H3O5S1)]\\@

 Writing a WFNX file to "HFSO4-h2o.wfx"


 ERROR IS A HARDY PLANT... IT FLOURISHETH IN EVERY SOIL.
            MARTIN FARQUHAR TUPPER
 Job cpu time:       0 days  0 hours  1 minutes  1.3 seconds.
 File lengths (MBytes):  RWF=     11 Int=      0 D2E=      0 Chk=      5 Scr=      1
 Normal termination of Gaussian 09 at Wed Jun 21 02:16:54 2017.
