 Entering Gaussian System, Link 0=g09
 Initial command:
 /usr/local/gaussian/gaussian09.d1/g09/l1.exe "/scratch/sarariop/HFSO4-h2o-A.com/Gau-17344.inp" -scrdir="/scratch/sarariop/HFSO4-h2o-A.com/"
 Default is to use a total of  10 processors:
                               10 via shared-memory
                                1 via Linda
 Entering Link 1 = /usr/local/gaussian/gaussian09.d1/g09/l1.exe PID=     17345.
  
 Copyright (c) 1988,1990,1992,1993,1995,1998,2003,2009,2013,
            Gaussian, Inc.  All Rights Reserved.
  
 This is part of the Gaussian(R) 09 program.  It is based on
 the Gaussian(R) 03 system (copyright 2003, Gaussian, Inc.),
 the Gaussian(R) 98 system (copyright 1998, Gaussian, Inc.),
 the Gaussian(R) 94 system (copyright 1995, Gaussian, Inc.),
 the Gaussian 92(TM) system (copyright 1992, Gaussian, Inc.),
 the Gaussian 90(TM) system (copyright 1990, Gaussian, Inc.),
 the Gaussian 88(TM) system (copyright 1988, Gaussian, Inc.),
 the Gaussian 86(TM) system (copyright 1986, Carnegie Mellon
 University), and the Gaussian 82(TM) system (copyright 1983,
 Carnegie Mellon University). Gaussian is a federally registered
 trademark of Gaussian, Inc.
  
 This software contains proprietary and confidential information,
 including trade secrets, belonging to Gaussian, Inc.
  
 This software is provided under written license and may be
 used, copied, transmitted, or stored only in accord with that
 written license.
  
 The following legend is applicable only to US Government
 contracts under FAR:
  
                    RESTRICTED RIGHTS LEGEND
  
 Use, reproduction and disclosure by the US Government is
 subject to restrictions as set forth in subparagraphs (a)
 and (c) of the Commercial Computer Software - Restricted
 Rights clause in FAR 52.227-19.
  
 Gaussian, Inc.
 340 Quinnipiac St., Bldg. 40, Wallingford CT 06492
  
  
 ---------------------------------------------------------------
 Warning -- This program may not be used in any manner that
 competes with the business of Gaussian, Inc. or will provide
 assistance to any competitor of Gaussian, Inc.  The licensee
 of this program is prohibited from giving any competitor of
 Gaussian, Inc. access to this program.  By using this program,
 the user acknowledges that Gaussian, Inc. is engaged in the
 business of creating and licensing software in the field of
 computational chemistry and represents and warrants to the
 licensee that it is not a competitor of Gaussian, Inc. and that
 it will not use this program in any manner prohibited above.
 ---------------------------------------------------------------
  

 Cite this work as:
 Gaussian 09, Revision D.01,
 M. J. Frisch, G. W. Trucks, H. B. Schlegel, G. E. Scuseria, 
 M. A. Robb, J. R. Cheeseman, G. Scalmani, V. Barone, B. Mennucci, 
 G. A. Petersson, H. Nakatsuji, M. Caricato, X. Li, H. P. Hratchian, 
 A. F. Izmaylov, J. Bloino, G. Zheng, J. L. Sonnenberg, M. Hada, 
 M. Ehara, K. Toyota, R. Fukuda, J. Hasegawa, M. Ishida, T. Nakajima, 
 Y. Honda, O. Kitao, H. Nakai, T. Vreven, J. A. Montgomery, Jr., 
 J. E. Peralta, F. Ogliaro, M. Bearpark, J. J. Heyd, E. Brothers, 
 K. N. Kudin, V. N. Staroverov, T. Keith, R. Kobayashi, J. Normand, 
 K. Raghavachari, A. Rendell, J. C. Burant, S. S. Iyengar, J. Tomasi, 
 M. Cossi, N. Rega, J. M. Millam, M. Klene, J. E. Knox, J. B. Cross, 
 V. Bakken, C. Adamo, J. Jaramillo, R. Gomperts, R. E. Stratmann, 
 O. Yazyev, A. J. Austin, R. Cammi, C. Pomelli, J. W. Ochterski, 
 R. L. Martin, K. Morokuma, V. G. Zakrzewski, G. A. Voth, 
 P. Salvador, J. J. Dannenberg, S. Dapprich, A. D. Daniels, 
 O. Farkas, J. B. Foresman, J. V. Ortiz, J. Cioslowski, 
 and D. J. Fox, Gaussian, Inc., Wallingford CT, 2013.
 
 ******************************************
 Gaussian 09:  AM64L-G09RevD.01 24-Apr-2013
                23-Jun-2017 
 ******************************************
 %chk=HFSO4-h2o-A.chk
 Default route:  MaxDisk=70GB
 -----------------------------------------
 # opt freq b3lyp/6-311g geom=connectivity
 -----------------------------------------
 1/14=-1,18=20,19=15,26=3,38=1,57=2/1,3;
 2/9=110,12=2,17=6,18=5,40=1/2;
 3/5=4,6=6,11=2,16=1,25=1,30=1,71=1,74=-5/1,2,3;
 4//1;
 5/5=2,38=5/2;
 6/7=2,8=2,9=2,10=2,28=1/1;
 7//1,2,3,16;
 1/14=-1,18=20,19=15,26=3/3(2);
 2/9=110/2;
 99//99;
 2/9=110/2;
 3/5=4,6=6,11=2,16=1,25=1,30=1,71=1,74=-5/1,2,3;
 4/5=5,16=3,69=1/1;
 5/5=2,38=5/2;
 7//1,2,3,16;
 1/14=-1,18=20,19=15,26=3/3(-5);
 2/9=110/2;
 6/7=2,8=2,9=2,10=2,19=2,28=1/1;
 99/9=1/99;
 -------------------
 Title Card Required
 -------------------
 Symbolic Z-matrix:
 Charge = -1 Multiplicity = 1
 S                     0.17284   0.11111   0. 
 O                     1.57589  -0.15458  -0.70459 
 O                     0.02578   0.35781   1.57464 
 O                    -1.00297  -0.99068  -0.66615 
 O                    -0.76465   1.62015  -0.88348 
 F                    -0.42302   2.83401  -0.10547 
 O                    -3.17414   0.12329  -0.05918 
 H                    -3.15416   1.06437  -0.28471 
 H                    -3.91767  -0.12684   0.50254 
 
 Add virtual bond connecting atoms F6         and O5         Dist= 2.80D+00.
 Add virtual bond connecting atoms O5         and S1         Dist= 3.75D+00.
 Add virtual bond connecting atoms O7         and O4         Dist= 4.75D+00.
 Add virtual bond connecting atoms H8         and O5         Dist= 4.77D+00.

 GradGradGradGradGradGradGradGradGradGradGradGradGradGradGradGradGradGrad
 Berny optimization.
 Initialization pass.
                           ----------------------------
                           !    Initial Parameters    !
                           ! (Angstroms and Degrees)  !
 --------------------------                            --------------------------
 ! Name  Definition              Value          Derivative Info.                !
 --------------------------------------------------------------------------------
 ! R1    R(1,2)                  1.5924         estimate D2E/DX2                !
 ! R2    R(1,3)                  1.6006         estimate D2E/DX2                !
 ! R3    R(1,4)                  1.7436         estimate D2E/DX2                !
 ! R4    R(1,5)                  1.9841         estimate D2E/DX2                !
 ! R5    R(4,7)                  2.5146         estimate D2E/DX2                !
 ! R6    R(5,6)                  1.4817         estimate D2E/DX2                !
 ! R7    R(5,8)                  2.5253         estimate D2E/DX2                !
 ! R8    R(7,8)                  0.9679         estimate D2E/DX2                !
 ! R9    R(7,9)                  0.9648         estimate D2E/DX2                !
 ! A1    A(2,1,3)              122.8177         estimate D2E/DX2                !
 ! A2    A(2,1,4)              108.6443         estimate D2E/DX2                !
 ! A3    A(2,1,5)              110.2555         estimate D2E/DX2                !
 ! A4    A(3,1,4)              114.2858         estimate D2E/DX2                !
 ! A5    A(3,1,5)              106.1064         estimate D2E/DX2                !
 ! A6    A(4,1,5)               89.533          estimate D2E/DX2                !
 ! A7    A(1,4,7)              102.1279         estimate D2E/DX2                !
 ! A8    A(1,5,6)              106.2796         estimate D2E/DX2                !
 ! A9    A(1,5,8)              100.0277         estimate D2E/DX2                !
 ! A10   A(6,5,8)              105.9005         estimate D2E/DX2                !
 ! A11   A(4,7,8)              110.8937         estimate D2E/DX2                !
 ! A12   A(4,7,9)              133.7134         estimate D2E/DX2                !
 ! A13   A(8,7,9)              113.8044         estimate D2E/DX2                !
 ! A14   A(5,8,7)              106.7839         estimate D2E/DX2                !
 ! D1    D(2,1,4,7)           -160.7033         estimate D2E/DX2                !
 ! D2    D(3,1,4,7)             58.0583         estimate D2E/DX2                !
 ! D3    D(5,1,4,7)            -49.4406         estimate D2E/DX2                !
 ! D4    D(2,1,5,6)            -94.383          estimate D2E/DX2                !
 ! D5    D(2,1,5,8)            155.6501         estimate D2E/DX2                !
 ! D6    D(3,1,5,6)             40.6777         estimate D2E/DX2                !
 ! D7    D(3,1,5,8)            -69.2892         estimate D2E/DX2                !
 ! D8    D(4,1,5,6)            155.8759         estimate D2E/DX2                !
 ! D9    D(4,1,5,8)             45.909          estimate D2E/DX2                !
 ! D10   D(1,4,7,8)             47.745          estimate D2E/DX2                !
 ! D11   D(1,4,7,9)           -116.5503         estimate D2E/DX2                !
 ! D12   D(1,5,8,7)            -20.3824         estimate D2E/DX2                !
 ! D13   D(6,5,8,7)           -130.6478         estimate D2E/DX2                !
 ! D14   D(4,7,8,5)            -10.4155         estimate D2E/DX2                !
 ! D15   D(9,7,8,5)            157.237          estimate D2E/DX2                !
 --------------------------------------------------------------------------------
 Trust Radius=3.00D-01 FncErr=1.00D-07 GrdErr=1.00D-06
 Number of steps in this run=     48 maximum allowed number of steps=    100.
 GradGradGradGradGradGradGradGradGradGradGradGradGradGradGradGradGradGrad

                          Input orientation:                          
 ---------------------------------------------------------------------
 Center     Atomic      Atomic             Coordinates (Angstroms)
 Number     Number       Type             X           Y           Z
 ---------------------------------------------------------------------
      1         16           0        0.172840    0.111111    0.000000
      2          8           0        1.575892   -0.154582   -0.704586
      3          8           0        0.025785    0.357808    1.574637
      4          8           0       -1.002965   -0.990681   -0.666153
      5          8           0       -0.764651    1.620149   -0.883484
      6          9           0       -0.423017    2.834006   -0.105468
      7          8           0       -3.174141    0.123288   -0.059175
      8          1           0       -3.154157    1.064368   -0.284714
      9          1           0       -3.917665   -0.126840    0.502535
 ---------------------------------------------------------------------
                    Distance matrix (angstroms):
                    1          2          3          4          5
     1  S    0.000000
     2  O    1.592353   0.000000
     3  O    1.600614   2.803611   0.000000
     4  O    1.743623   2.711281   2.810318   0.000000
     5  O    1.984094   2.942757   2.874135   2.630677   0.000000
     6  F    2.789324   3.645029   3.025844   3.908828   1.481712
     7  O    3.347526   4.801727   3.600537   2.514628   2.953933
     8  H    3.472560   4.902601   3.750792   2.999391   2.525303
     9  H    4.128122   5.624685   4.115226   3.256920   3.861932
                    6          7          8          9
     6  F    0.000000
     7  O    3.862489   0.000000
     8  H    3.259275   0.967935   0.000000
     9  H    4.620481   0.964837   1.619161   0.000000
 Stoichiometry    FH2O5S(1-)
 Framework group  C1[X(FH2O5S)]
 Deg. of freedom    21
 Full point group                 C1      NOp   1
 Largest Abelian subgroup         C1      NOp   1
 Largest concise Abelian subgroup C1      NOp   1
                         Standard orientation:                         
 ---------------------------------------------------------------------
 Center     Atomic      Atomic             Coordinates (Angstroms)
 Number     Number       Type             X           Y           Z
 ---------------------------------------------------------------------
      1         16           0        0.710168   -0.394299    0.099556
      2          8           0        2.126735   -0.593349   -0.599948
      3          8           0        0.545191   -0.165682    1.675146
      4          8           0       -0.413265   -1.541532   -0.580135
      5          8           0       -0.288286    1.078722   -0.777899
      6          9           0       -0.003634    2.300669    0.010321
      7          8           0       -2.633838   -0.527876    0.023945
      8          1           0       -2.653961    0.414790   -0.194861
      9          1           0       -3.368309   -0.814302    0.580203
 ---------------------------------------------------------------------
 Rotational constants (GHZ):      2.1074786      1.7250113      1.2634733
 Standard basis: 6-311G (5D, 7F)
 There are   105 symmetry adapted cartesian basis functions of A   symmetry.
 There are   105 symmetry adapted basis functions of A   symmetry.
   105 basis functions,   206 primitive gaussians,   105 cartesian basis functions
    34 alpha electrons       34 beta electrons
       nuclear repulsion energy       413.2727159214 Hartrees.



 Warning!  S  atom    1 may be hypervalent but has no d functions.



 NAtoms=    9 NActive=    9 NUniq=    9 SFac= 1.00D+00 NAtFMM=   60 NAOKFM=F Big=F
 Integral buffers will be    131072 words long.
 Raffenetti 2 integral format.
 Two-electron integral symmetry is turned on.
 One-electron integrals computed using PRISM.
 NBasis=   105 RedAO= T EigKep=  1.56D-02  NBF=   105
 NBsUse=   105 1.00D-06 EigRej= -1.00D+00 NBFU=   105
 ExpMin= 7.71D-02 ExpMax= 9.34D+04 ExpMxC= 3.17D+03 IAcc=2 IRadAn=         4 AccDes= 0.00D+00
 Harris functional with IExCor=  402 and IRadAn=       4 diagonalized for initial guess.
 HarFok:  IExCor=  402 AccDes= 0.00D+00 IRadAn=         4 IDoV= 1 UseB2=F ITyADJ=14
 ICtDFT=  3500011 ScaDFX=  1.000000  1.000000  1.000000  1.000000
 FoFCou: FMM=F IPFlag=           0 FMFlag=      100000 FMFlg1=           0
         NFxFlg=           0 DoJE=T BraDBF=F KetDBF=T FulRan=T
         wScrn=  0.000000 ICntrl=     500 IOpCl=  0 I1Cent=   200000004 NGrid=           0
         NMat0=    1 NMatS0=      1 NMatT0=    0 NMatD0=    1 NMtDS0=    0 NMtDT0=    0
 Petite list used in FoFCou.
 Keep R1 ints in memory in canonical form, NReq=16468124.
 Requested convergence on RMS density matrix=1.00D-08 within 128 cycles.
 Requested convergence on MAX density matrix=1.00D-06.
 Requested convergence on             energy=1.00D-06.
 No special actions if energy rises.
 Integral accuracy reduced to 1.0D-05 until final iterations.
 EnCoef did     2 forward-backward iterations
 EnCoef did     2 forward-backward iterations
 EnCoef did     2 forward-backward iterations
 Initial convergence to 1.0D-05 achieved.  Increase integral accuracy.
 SCF Done:  E(RB3LYP) =  -875.091779509     A.U. after   21 cycles
            NFock= 21  Conv=0.57D-08     -V/T= 2.0015

 **********************************************************************

            Population analysis using the SCF density.

 **********************************************************************

 Orbital symmetries:
       Occupied  (A) (A) (A) (A) (A) (A) (A) (A) (A) (A) (A) (A)
                 (A) (A) (A) (A) (A) (A) (A) (A) (A) (A) (A) (A)
                 (A) (A) (A) (A) (A) (A) (A) (A) (A) (A)
       Virtual   (A) (A) (A) (A) (A) (A) (A) (A) (A) (A) (A) (A)
                 (A) (A) (A) (A) (A) (A) (A) (A) (A) (A) (A) (A)
                 (A) (A) (A) (A) (A) (A) (A) (A) (A) (A) (A) (A)
                 (A) (A) (A) (A) (A) (A) (A) (A) (A) (A) (A) (A)
                 (A) (A) (A) (A) (A) (A) (A) (A) (A) (A) (A) (A)
                 (A) (A) (A) (A) (A) (A) (A) (A) (A) (A) (A)
 The electronic state is 1-A.
 Alpha  occ. eigenvalues --  -88.92858 -24.53190 -19.05476 -18.98232 -18.98024
 Alpha  occ. eigenvalues --  -18.95551 -18.93887  -8.00303  -5.96480  -5.96332
 Alpha  occ. eigenvalues --   -5.96204  -1.05347  -0.92506  -0.86588  -0.82726
 Alpha  occ. eigenvalues --   -0.77063  -0.74156  -0.48386  -0.40126  -0.35969
 Alpha  occ. eigenvalues --   -0.32174  -0.30612  -0.28996  -0.28318  -0.25200
 Alpha  occ. eigenvalues --   -0.19904  -0.16006  -0.15778  -0.15425  -0.14456
 Alpha  occ. eigenvalues --   -0.14334  -0.13933  -0.10180  -0.08418
 Alpha virt. eigenvalues --    0.05044   0.08953   0.13428   0.15875   0.20568
 Alpha virt. eigenvalues --    0.23821   0.26215   0.34715   0.37139   0.40637
 Alpha virt. eigenvalues --    0.51196   0.54260   0.60080   0.83225   0.85973
 Alpha virt. eigenvalues --    0.89192   0.90742   0.94331   0.94719   0.99109
 Alpha virt. eigenvalues --    1.01129   1.02973   1.04260   1.05717   1.07622
 Alpha virt. eigenvalues --    1.13714   1.15946   1.17865   1.19261   1.23043
 Alpha virt. eigenvalues --    1.27054   1.32832   1.38927   1.44321   1.49147
 Alpha virt. eigenvalues --    1.60351   1.67561   1.70350   1.74901   1.86371
 Alpha virt. eigenvalues --    2.27177   2.36885   4.82157   4.86320   4.88113
 Alpha virt. eigenvalues --    4.89142   4.90580   4.92710   4.95589   4.96603
 Alpha virt. eigenvalues --    4.99013   5.00929   5.03027   5.07802   5.09469
 Alpha virt. eigenvalues --    5.14469   5.20481   6.18799   6.21213   6.29249
 Alpha virt. eigenvalues --    7.58609  17.22233  17.28110  17.29643  49.80510
 Alpha virt. eigenvalues --   49.87964  49.89509  49.90445  49.97698  66.77648
 Alpha virt. eigenvalues --  188.65636
          Condensed to atoms (all electrons):
               1          2          3          4          5          6
     1  S   14.308721   0.131927   0.135139   0.201893   0.006929  -0.001260
     2  O    0.131927   8.566171  -0.035884  -0.049292  -0.020552   0.000275
     3  O    0.135139  -0.035884   8.551918  -0.036713  -0.024581   0.002385
     4  O    0.201893  -0.049292  -0.036713   8.469298  -0.023732   0.000497
     5  O    0.006929  -0.020552  -0.024581  -0.023732   8.301249  -0.015147
     6  F   -0.001260   0.000275   0.002385   0.000497  -0.015147   9.249549
     7  O    0.012713  -0.000013  -0.000345  -0.029028  -0.001617  -0.000024
     8  H   -0.004196   0.000030   0.000241   0.004542   0.010776   0.000531
     9  H   -0.000138   0.000011   0.000103   0.005255  -0.000135  -0.000027
               7          8          9
     1  S    0.012713  -0.004196  -0.000138
     2  O   -0.000013   0.000030   0.000011
     3  O   -0.000345   0.000241   0.000103
     4  O   -0.029028   0.004542   0.005255
     5  O   -0.001617   0.010776  -0.000135
     6  F   -0.000024   0.000531  -0.000027
     7  O    8.277660   0.228879   0.219551
     8  H    0.228879   0.422037  -0.029861
     9  H    0.219551  -0.029861   0.475134
 Mulliken charges:
               1
     1  S    1.208273
     2  O   -0.592673
     3  O   -0.592263
     4  O   -0.542719
     5  O   -0.233190
     6  F   -0.236779
     7  O   -0.707776
     8  H    0.367021
     9  H    0.330107
 Sum of Mulliken charges =  -1.00000
 Mulliken charges with hydrogens summed into heavy atoms:
               1
     1  S    1.208273
     2  O   -0.592673
     3  O   -0.592263
     4  O   -0.542719
     5  O   -0.233190
     6  F   -0.236779
     7  O   -0.010648
 Electronic spatial extent (au):  <R**2>=            981.7895
 Charge=             -1.0000 electrons
 Dipole moment (field-independent basis, Debye):
    X=             -3.3889    Y=              2.0213    Z=              0.8784  Tot=              4.0425
 Quadrupole moment (field-independent basis, Debye-Ang):
   XX=            -50.3591   YY=            -58.3843   ZZ=            -56.6534
   XY=             -1.2943   XZ=             -2.0898   YZ=             -2.8862
 Traceless Quadrupole moment (field-independent basis, Debye-Ang):
   XX=              4.7731   YY=             -3.2520   ZZ=             -1.5211
   XY=             -1.2943   XZ=             -2.0898   YZ=             -2.8862
 Octapole moment (field-independent basis, Debye-Ang**2):
  XXX=            -62.6361  YYY=              8.4624  ZZZ=             -9.0907  XYY=             -2.5541
  XXY=             12.3835  XXZ=             15.7904  XZZ=             -8.6636  YZZ=              5.5084
  YYZ=              5.8809  XYZ=              2.2514
 Hexadecapole moment (field-independent basis, Debye-Ang**3):
 XXXX=           -479.9876 YYYY=           -397.2943 ZZZZ=           -208.5948 XXXY=             19.4961
 XXXZ=            -25.0080 YYYX=              2.4026 YYYZ=             -5.8266 ZZZX=             -7.9568
 ZZZY=              0.2836 XXYY=           -147.4422 XXZZ=           -127.0364 YYZZ=            -94.8494
 XXYZ=            -16.3847 YYXZ=             -2.0429 ZZXY=              3.1667
 N-N= 4.132727159214D+02 E-N=-2.917461047739D+03  KE= 8.737905813875D+02
 Calling FoFJK, ICntrl=      2127 FMM=F ISym2X=0 I1Cent= 0 IOpClX= 0 NMat=1 NMatS=1 NMatT=0.
 ***** Axes restored to original set *****
 -------------------------------------------------------------------
 Center     Atomic                   Forces (Hartrees/Bohr)
 Number     Number              X              Y              Z
 -------------------------------------------------------------------
      1       16          -0.069373031   -0.062552317   -0.030371723
      2        8           0.028340240    0.011738396   -0.000524586
      3        8           0.010408810    0.010347557    0.012835394
      4        8           0.040417765    0.020911489    0.013696690
      5        8          -0.001144056   -0.004470884   -0.005419560
      6        9           0.003805213    0.019109815    0.006238376
      7        8          -0.007831097   -0.003847328   -0.004324498
      8        1           0.001658358    0.002738241    0.002781101
      9        1          -0.006282201    0.006025031    0.005088807
 -------------------------------------------------------------------
 Cartesian Forces:  Max     0.069373031 RMS     0.022698882

 GradGradGradGradGradGradGradGradGradGradGradGradGradGradGradGradGradGrad
 Berny optimization.
 FormGI is forming the generalized inverse of G from B-inverse, IUseBI=4.
 Internal  Forces:  Max     0.040167113 RMS     0.011376855
 Search for a local minimum.
 Step number   1 out of a maximum of   48
 All quantities printed in internal units (Hartrees-Bohrs-Radians)
 Mixed Optimization -- RFO/linear search
 Second derivative matrix not updated -- first step.
 ITU=  0
     Eigenvalues ---    0.00611   0.00807   0.01567   0.02477   0.03533
     Eigenvalues ---    0.05526   0.10409   0.11231   0.13810   0.14874
     Eigenvalues ---    0.15051   0.15681   0.15876   0.19381   0.22095
     Eigenvalues ---    0.30395   0.34374   0.51099   0.52522   0.52725
     Eigenvalues ---    0.54446
 RFO step:  Lambda=-2.53303178D-02 EMin= 6.11422771D-03
 Linear search not attempted -- first point.
 Maximum step size (   0.300) exceeded in Quadratic search.
    -- Step size scaled by   0.856
 Iteration  1 RMS(Cart)=  0.05952056 RMS(Int)=  0.00457368
 Iteration  2 RMS(Cart)=  0.00380686 RMS(Int)=  0.00235231
 Iteration  3 RMS(Cart)=  0.00001398 RMS(Int)=  0.00235229
 Iteration  4 RMS(Cart)=  0.00000012 RMS(Int)=  0.00235229
 Variable       Old X    -DE/DX   Delta X   Delta X   Delta X     New X
                                 (Linear)    (Quad)   (Total)
    R1        3.00911   0.02325   0.00000   0.03602   0.03602   3.04513
    R2        3.02472   0.01326   0.00000   0.02116   0.02116   3.04589
    R3        3.29497  -0.04017   0.00000  -0.10747  -0.10740   3.18757
    R4        3.74939   0.00791   0.00000   0.04045   0.04039   3.78978
    R5        4.75196   0.01485   0.00000   0.20242   0.20278   4.95473
    R6        2.80003   0.01981   0.00000   0.04597   0.04597   2.84600
    R7        4.77213  -0.00109   0.00000   0.00259   0.00223   4.77437
    R8        1.82913   0.00254   0.00000   0.00463   0.00459   1.83373
    R9        1.82328   0.00624   0.00000   0.00938   0.00938   1.83266
    A1        2.14357  -0.01155   0.00000  -0.07508  -0.08488   2.05869
    A2        1.89620   0.01371   0.00000   0.09613   0.09637   1.99257
    A3        1.92432  -0.01007   0.00000  -0.06251  -0.06714   1.85718
    A4        1.99466   0.00968   0.00000   0.06366   0.06212   2.05678
    A5        1.85191  -0.00739   0.00000  -0.04834  -0.05165   1.80025
    A6        1.56265   0.00911   0.00000   0.04398   0.04471   1.60735
    A7        1.78247   0.00051   0.00000  -0.01709  -0.01774   1.76473
    A8        1.85493   0.00972   0.00000   0.03719   0.03688   1.89180
    A9        1.74581  -0.00528   0.00000   0.00300   0.00354   1.74935
   A10        1.84831  -0.00070   0.00000   0.00816   0.00825   1.85657
   A11        1.93546  -0.00241   0.00000  -0.01234  -0.01317   1.92229
   A12        2.33374   0.00711   0.00000   0.02705   0.02517   2.35891
   A13        1.98626  -0.00570   0.00000  -0.03559  -0.03665   1.94961
   A14        1.86373   0.00173   0.00000   0.01620   0.01609   1.87982
    D1       -2.80480   0.00708   0.00000   0.07114   0.07066  -2.73414
    D2        1.01331  -0.00127   0.00000   0.00808   0.00685   1.02016
    D3       -0.86290   0.00133   0.00000   0.03230   0.03188  -0.83102
    D4       -1.64729   0.01735   0.00000   0.14228   0.13831  -1.50898
    D5        2.71661   0.01723   0.00000   0.12137   0.11651   2.83312
    D6        0.70996  -0.01174   0.00000  -0.04474  -0.04090   0.66906
    D7       -1.20933  -0.01186   0.00000  -0.06565  -0.06270  -1.27202
    D8        2.72055   0.00034   0.00000   0.02975   0.02969   2.75024
    D9        0.80126   0.00021   0.00000   0.00884   0.00789   0.80916
   D10        0.83331  -0.00206   0.00000  -0.04694  -0.04691   0.78639
   D11       -2.03419   0.00407   0.00000   0.06141   0.06267  -1.97151
   D12       -0.35574   0.00545   0.00000   0.00260   0.00246  -0.35328
   D13       -2.28023  -0.00290   0.00000  -0.04109  -0.04144  -2.32167
   D14       -0.18178   0.00294   0.00000   0.03167   0.03120  -0.15059
   D15        2.74430   0.00020   0.00000  -0.04359  -0.04139   2.70292
         Item               Value     Threshold  Converged?
 Maximum Force            0.040167     0.000450     NO 
 RMS     Force            0.011377     0.000300     NO 
 Maximum Displacement     0.196005     0.001800     NO 
 RMS     Displacement     0.059859     0.001200     NO 
 Predicted change in Energy=-1.392537D-02
 GradGradGradGradGradGradGradGradGradGradGradGradGradGradGradGradGradGrad

                          Input orientation:                          
 ---------------------------------------------------------------------
 Center     Atomic      Atomic             Coordinates (Angstroms)
 Number     Number       Type             X           Y           Z
 ---------------------------------------------------------------------
      1         16           0        0.154808    0.030523   -0.020252
      2          8           0        1.618872   -0.050860   -0.688496
      3          8           0        0.060357    0.360158    1.554665
      4          8           0       -0.960288   -1.058231   -0.665566
      5          8           0       -0.769568    1.594375   -0.869835
      6          9           0       -0.404312    2.837084   -0.101453
      7          8           0       -3.223473    0.125251   -0.072361
      8          1           0       -3.169876    1.071736   -0.279494
      9          1           0       -3.968604   -0.071408    0.516383
 ---------------------------------------------------------------------
                    Distance matrix (angstroms):
                    1          2          3          4          5
     1  S    0.000000
     2  O    1.611415   0.000000
     3  O    1.611814   2.762187   0.000000
     4  O    1.686788   2.769005   2.825415   0.000000
     5  O    2.005467   2.905914   2.844340   2.667287   0.000000
     6  F    2.862865   3.574649   3.015594   3.975023   1.506037
     7  O    3.380011   4.884562   3.672320   2.621932   2.969165
     8  H    3.493545   4.935546   3.782180   3.093233   2.526486
     9  H    4.159434   5.715947   4.182918   3.379465   3.863970
                    6          7          8          9
     6  F    0.000000
     7  O    3.911848   0.000000
     8  H    3.285802   0.970366   0.000000
     9  H    4.641683   0.969801   1.605667   0.000000
 Stoichiometry    FH2O5S(1-)
 Framework group  C1[X(FH2O5S)]
 Deg. of freedom    21
 Full point group                 C1      NOp   1
 Largest Abelian subgroup         C1      NOp   1
 Largest concise Abelian subgroup C1      NOp   1
                         Standard orientation:                         
 ---------------------------------------------------------------------
 Center     Atomic      Atomic             Coordinates (Angstroms)
 Number     Number       Type             X           Y           Z
 ---------------------------------------------------------------------
      1         16           0        0.679648   -0.474543    0.083966
      2          8           0        2.146839   -0.523362   -0.580582
      3          8           0        0.574128   -0.150384    1.659317
      4          8           0       -0.410382   -1.585347   -0.566574
      5          8           0       -0.275547    1.071146   -0.764768
      6          9           0        0.061224    2.319675    0.007183
      7          8           0       -2.699738   -0.451496    0.023140
      8          1           0       -2.665729    0.496358   -0.181863
      9          1           0       -3.442045   -0.665210    0.609502
 ---------------------------------------------------------------------
 Rotational constants (GHZ):      2.0955998      1.6975229      1.2332622
 Standard basis: 6-311G (5D, 7F)
 There are   105 symmetry adapted cartesian basis functions of A   symmetry.
 There are   105 symmetry adapted basis functions of A   symmetry.
   105 basis functions,   206 primitive gaussians,   105 cartesian basis functions
    34 alpha electrons       34 beta electrons
       nuclear repulsion energy       410.8940127040 Hartrees.



 Warning!  S  atom    1 may be hypervalent but has no d functions.



 NAtoms=    9 NActive=    9 NUniq=    9 SFac= 1.00D+00 NAtFMM=   60 NAOKFM=F Big=F
 Integral buffers will be    131072 words long.
 Raffenetti 2 integral format.
 Two-electron integral symmetry is turned on.
 One-electron integrals computed using PRISM.
 NBasis=   105 RedAO= T EigKep=  1.55D-02  NBF=   105
 NBsUse=   105 1.00D-06 EigRej= -1.00D+00 NBFU=   105
 Initial guess from the checkpoint file:  "HFSO4-h2o-A.chk"
 B after Tr=     0.000000    0.000000    0.000000
         Rot=    0.999962    0.000784   -0.000671    0.008665 Ang=   1.00 deg.
 ExpMin= 7.71D-02 ExpMax= 9.34D+04 ExpMxC= 3.17D+03 IAcc=2 IRadAn=         4 AccDes= 0.00D+00
 Harris functional with IExCor=  402 and IRadAn=       4 diagonalized for initial guess.
 HarFok:  IExCor=  402 AccDes= 0.00D+00 IRadAn=         4 IDoV= 1 UseB2=F ITyADJ=14
 ICtDFT=  3500011 ScaDFX=  1.000000  1.000000  1.000000  1.000000
 FoFCou: FMM=F IPFlag=           0 FMFlag=      100000 FMFlg1=           0
         NFxFlg=           0 DoJE=T BraDBF=F KetDBF=T FulRan=T
         wScrn=  0.000000 ICntrl=     500 IOpCl=  0 I1Cent=   200000004 NGrid=           0
         NMat0=    1 NMatS0=      1 NMatT0=    0 NMatD0=    1 NMtDS0=    0 NMtDT0=    0
 Petite list used in FoFCou.
 Keep R1 ints in memory in canonical form, NReq=16468124.
 Requested convergence on RMS density matrix=1.00D-08 within 128 cycles.
 Requested convergence on MAX density matrix=1.00D-06.
 Requested convergence on             energy=1.00D-06.
 No special actions if energy rises.
 Integral accuracy reduced to 1.0D-05 until final iterations.
 Initial convergence to 1.0D-05 achieved.  Increase integral accuracy.
 SCF Done:  E(RB3LYP) =  -875.107389585     A.U. after   17 cycles
            NFock= 17  Conv=0.37D-08     -V/T= 2.0016
 Calling FoFJK, ICntrl=      2127 FMM=F ISym2X=0 I1Cent= 0 IOpClX= 0 NMat=1 NMatS=1 NMatT=0.
 ***** Axes restored to original set *****
 -------------------------------------------------------------------
 Center     Atomic                   Forces (Hartrees/Bohr)
 Number     Number              X              Y              Z
 -------------------------------------------------------------------
      1       16          -0.033844597   -0.026977552   -0.014590717
      2        8           0.010431083    0.004212821   -0.000527038
      3        8           0.003729711    0.001280012    0.006208669
      4        8           0.028824546    0.012300803    0.008823196
      5        8          -0.002551751    0.003862764   -0.001921355
      6        9           0.001457033    0.002057115   -0.000328650
      7        8          -0.011140794   -0.002164900   -0.002280503
      8        1           0.004731447    0.001036192    0.001860972
      9        1          -0.001636678    0.004392744    0.002755427
 -------------------------------------------------------------------
 Cartesian Forces:  Max     0.033844597 RMS     0.011465180

 GradGradGradGradGradGradGradGradGradGradGradGradGradGradGradGradGradGrad
 Berny optimization.
 Using GEDIIS/GDIIS optimizer.
 FormGI is forming the generalized inverse of G from B-inverse, IUseBI=4.
 Internal  Forces:  Max     0.026174002 RMS     0.005651691
 Search for a local minimum.
 Step number   2 out of a maximum of   48
 All quantities printed in internal units (Hartrees-Bohrs-Radians)
 Mixed Optimization -- RFO/linear search
 Update second derivatives using D2CorX and points    1    2
 DE= -1.56D-02 DEPred=-1.39D-02 R= 1.12D+00
 TightC=F SS=  1.41D+00  RLast= 3.84D-01 DXNew= 5.0454D-01 1.1533D+00
 Trust test= 1.12D+00 RLast= 3.84D-01 DXMaxT set to 5.05D-01
 ITU=  1  0
 Use linear search instead of GDIIS.
     Eigenvalues ---    0.00607   0.00870   0.01586   0.02457   0.03241
     Eigenvalues ---    0.05247   0.10616   0.12329   0.13348   0.13805
     Eigenvalues ---    0.15021   0.15526   0.15911   0.19324   0.21784
     Eigenvalues ---    0.26201   0.35698   0.50753   0.52267   0.52560
     Eigenvalues ---    0.54442
 RFO step:  Lambda=-5.87746414D-03 EMin= 6.06657242D-03
 Quartic linear search produced a step of  0.76667.
 Iteration  1 RMS(Cart)=  0.06578770 RMS(Int)=  0.02482410
 Iteration  2 RMS(Cart)=  0.02337998 RMS(Int)=  0.00490140
 Iteration  3 RMS(Cart)=  0.00013444 RMS(Int)=  0.00489983
 Iteration  4 RMS(Cart)=  0.00000065 RMS(Int)=  0.00489983
 Variable       Old X    -DE/DX   Delta X   Delta X   Delta X     New X
                                 (Linear)    (Quad)   (Total)
    R1        3.04513   0.00948   0.02762   0.00477   0.03238   3.07751
    R2        3.04589   0.00610   0.01623   0.00514   0.02137   3.06725
    R3        3.18757  -0.02617  -0.08234  -0.07369  -0.15566   3.03191
    R4        3.78978   0.00427   0.03097   0.01852   0.04846   3.83824
    R5        4.95473   0.01077   0.15546   0.19881   0.35556   5.31029
    R6        2.84600   0.00188   0.03524  -0.02496   0.01029   2.85628
    R7        4.77437  -0.00186   0.00171  -0.04770  -0.04700   4.72737
    R8        1.83373   0.00124   0.00352   0.00258   0.00652   1.84024
    R9        1.83266   0.00204   0.00719  -0.00035   0.00684   1.83950
    A1        2.05869  -0.00476  -0.06507   0.00336  -0.06984   1.98885
    A2        1.99257   0.00285   0.07388  -0.02114   0.05469   2.04726
    A3        1.85718  -0.00428  -0.05148   0.00431  -0.05246   1.80472
    A4        2.05678   0.00166   0.04762  -0.02455   0.01995   2.07673
    A5        1.80025   0.00031  -0.03960   0.04698   0.00450   1.80476
    A6        1.60735   0.00536   0.03427   0.01355   0.04870   1.65606
    A7        1.76473   0.00014  -0.01360  -0.02327  -0.03762   1.72711
    A8        1.89180   0.00210   0.02827  -0.02206   0.00559   1.89739
    A9        1.74935  -0.00348   0.00271   0.00618   0.01018   1.75954
   A10        1.85657   0.00053   0.00633   0.01031   0.01755   1.87412
   A11        1.92229  -0.00330  -0.01010  -0.03361  -0.05212   1.87017
   A12        2.35891   0.00435   0.01930  -0.00031   0.00174   2.36064
   A13        1.94961  -0.00244  -0.02810  -0.03110  -0.07034   1.87927
   A14        1.87982   0.00246   0.01233   0.03113   0.04476   1.92458
    D1       -2.73414   0.00149   0.05418  -0.00118   0.05050  -2.68364
    D2        1.02016   0.00356   0.00525   0.06292   0.06742   1.08757
    D3       -0.83102  -0.00011   0.02444   0.00612   0.02908  -0.80194
    D4       -1.50898   0.00520   0.10604   0.04361   0.14582  -1.36316
    D5        2.83312   0.00543   0.08933   0.03673   0.12007   2.95319
    D6        0.66906  -0.00221  -0.03136   0.07406   0.04589   0.71495
    D7       -1.27202  -0.00198  -0.04807   0.06718   0.02013  -1.25189
    D8        2.75024   0.00112   0.02276   0.06052   0.08280   2.83304
    D9        0.80916   0.00135   0.00605   0.05364   0.05705   0.86621
   D10        0.78639  -0.00189  -0.03597  -0.07388  -0.10470   0.68169
   D11       -1.97151   0.00403   0.04805   0.16461   0.21483  -1.75668
   D12       -0.35328   0.00163   0.00188  -0.08115  -0.07938  -0.43266
   D13       -2.32167   0.00055  -0.03177  -0.06283  -0.09552  -2.41719
   D14       -0.15059   0.00301   0.02392   0.08189   0.10160  -0.04899
   D15        2.70292   0.00024  -0.03173  -0.08960  -0.10843   2.59448
         Item               Value     Threshold  Converged?
 Maximum Force            0.026174     0.000450     NO 
 RMS     Force            0.005652     0.000300     NO 
 Maximum Displacement     0.225402     0.001800     NO 
 RMS     Displacement     0.078385     0.001200     NO 
 Predicted change in Energy=-7.184761D-03
 GradGradGradGradGradGradGradGradGradGradGradGradGradGradGradGradGradGrad

                          Input orientation:                          
 ---------------------------------------------------------------------
 Center     Atomic      Atomic             Coordinates (Angstroms)
 Number     Number       Type             X           Y           Z
 ---------------------------------------------------------------------
      1         16           0        0.141569   -0.022416   -0.039887
      2          8           0        1.647892    0.068417   -0.652191
      3          8           0        0.057649    0.284243    1.551791
      4          8           0       -0.845793   -1.116543   -0.674047
      5          8           0       -0.803474    1.568937   -0.876488
      6          9           0       -0.390082    2.821434   -0.138293
      7          8           0       -3.300313    0.129639   -0.109292
      8          1           0       -3.177801    1.084649   -0.255114
      9          1           0       -3.991731    0.020267    0.567114
 ---------------------------------------------------------------------
                    Distance matrix (angstroms):
                    1          2          3          4          5
     1  S    0.000000
     2  O    1.628550   0.000000
     3  O    1.623120   2.726351   0.000000
     4  O    1.604418   2.760992   2.780784   0.000000
     5  O    2.031111   2.882891   2.878977   2.693432   0.000000
     6  F    2.894791   3.463600   3.081263   4.000296   1.511480
     7  O    3.445938   4.978275   3.749534   2.810086   2.982344
     8  H    3.505729   4.947496   3.791265   3.234039   2.501614
     9  H    4.177851   5.770127   4.175733   3.567876   3.827186
                    6          7          8          9
     6  F    0.000000
     7  O    3.964347   0.000000
     8  H    3.286556   0.973815   0.000000
     9  H    4.616926   0.973420   1.572085   0.000000
 Stoichiometry    FH2O5S(1-)
 Framework group  C1[X(FH2O5S)]
 Deg. of freedom    21
 Full point group                 C1      NOp   1
 Largest Abelian subgroup         C1      NOp   1
 Largest concise Abelian subgroup C1      NOp   1
                         Standard orientation:                         
 ---------------------------------------------------------------------
 Center     Atomic      Atomic             Coordinates (Angstroms)
 Number     Number       Type             X           Y           Z
 ---------------------------------------------------------------------
      1         16           0        0.668525   -0.508598    0.055321
      2          8           0        2.170212   -0.356623   -0.556248
      3          8           0        0.580723   -0.258418    1.656639
      4          8           0       -0.290876   -1.606745   -0.613843
      5          8           0       -0.321079    1.084220   -0.725080
      6          9           0        0.060598    2.321639    0.054465
      7          8           0       -2.776370   -0.446824   -0.002707
      8          1           0       -2.679888    0.515526   -0.116245
      9          1           0       -3.462777   -0.597594    0.670836
 ---------------------------------------------------------------------
 Rotational constants (GHZ):      2.0925009      1.6606528      1.2087716
 Standard basis: 6-311G (5D, 7F)
 There are   105 symmetry adapted cartesian basis functions of A   symmetry.
 There are   105 symmetry adapted basis functions of A   symmetry.
   105 basis functions,   206 primitive gaussians,   105 cartesian basis functions
    34 alpha electrons       34 beta electrons
       nuclear repulsion energy       409.7435368347 Hartrees.



 Warning!  S  atom    1 may be hypervalent but has no d functions.



 NAtoms=    9 NActive=    9 NUniq=    9 SFac= 1.00D+00 NAtFMM=   60 NAOKFM=F Big=F
 Integral buffers will be    131072 words long.
 Raffenetti 2 integral format.
 Two-electron integral symmetry is turned on.
 One-electron integrals computed using PRISM.
 NBasis=   105 RedAO= T EigKep=  1.53D-02  NBF=   105
 NBsUse=   105 1.00D-06 EigRej= -1.00D+00 NBFU=   105
 Initial guess from the checkpoint file:  "HFSO4-h2o-A.chk"
 B after Tr=     0.000000    0.000000    0.000000
         Rot=    0.999801   -0.018276    0.002133   -0.007736 Ang=  -2.29 deg.
 ExpMin= 7.71D-02 ExpMax= 9.34D+04 ExpMxC= 3.17D+03 IAcc=2 IRadAn=         4 AccDes= 0.00D+00
 Harris functional with IExCor=  402 and IRadAn=       4 diagonalized for initial guess.
 HarFok:  IExCor=  402 AccDes= 0.00D+00 IRadAn=         4 IDoV= 1 UseB2=F ITyADJ=14
 ICtDFT=  3500011 ScaDFX=  1.000000  1.000000  1.000000  1.000000
 FoFCou: FMM=F IPFlag=           0 FMFlag=      100000 FMFlg1=           0
         NFxFlg=           0 DoJE=T BraDBF=F KetDBF=T FulRan=T
         wScrn=  0.000000 ICntrl=     500 IOpCl=  0 I1Cent=   200000004 NGrid=           0
         NMat0=    1 NMatS0=      1 NMatT0=    0 NMatD0=    1 NMtDS0=    0 NMtDT0=    0
 Petite list used in FoFCou.
 Keep R1 ints in memory in canonical form, NReq=16468124.
 Requested convergence on RMS density matrix=1.00D-08 within 128 cycles.
 Requested convergence on MAX density matrix=1.00D-06.
 Requested convergence on             energy=1.00D-06.
 No special actions if energy rises.
 Integral accuracy reduced to 1.0D-05 until final iterations.
 Initial convergence to 1.0D-05 achieved.  Increase integral accuracy.
 SCF Done:  E(RB3LYP) =  -875.115215411     A.U. after   17 cycles
            NFock= 17  Conv=0.51D-08     -V/T= 2.0016
 Calling FoFJK, ICntrl=      2127 FMM=F ISym2X=0 I1Cent= 0 IOpClX= 0 NMat=1 NMatS=1 NMatT=0.
 ***** Axes restored to original set *****
 -------------------------------------------------------------------
 Center     Atomic                   Forces (Hartrees/Bohr)
 Number     Number              X              Y              Z
 -------------------------------------------------------------------
      1       16           0.006960924    0.009610962    0.005722282
      2        8          -0.000212058   -0.001131912   -0.001592813
      3        8          -0.001985093   -0.001876917    0.001565420
      4        8           0.002331417   -0.008897078   -0.004977918
      5        8          -0.003757329    0.004177206   -0.000007765
      6        9           0.000464806   -0.003311462   -0.001670230
      7        8          -0.014971421    0.004388063    0.000752202
      8        1           0.009864258   -0.001483393   -0.001763711
      9        1           0.001304496   -0.001475469    0.001972532
 -------------------------------------------------------------------
 Cartesian Forces:  Max     0.014971421 RMS     0.005079395

 GradGradGradGradGradGradGradGradGradGradGradGradGradGradGradGradGradGrad
 Berny optimization.
 Using GEDIIS/GDIIS optimizer.
 FormGI is forming the generalized inverse of G from B-inverse, IUseBI=4.
 Internal  Forces:  Max     0.008371892 RMS     0.002604234
 Search for a local minimum.
 Step number   3 out of a maximum of   48
 All quantities printed in internal units (Hartrees-Bohrs-Radians)
 Mixed Optimization -- RFO/linear search
 Update second derivatives using D2CorX and points    2    3
 DE= -7.83D-03 DEPred=-7.18D-03 R= 1.09D+00
 TightC=F SS=  1.41D+00  RLast= 5.77D-01 DXNew= 8.4853D-01 1.7304D+00
 Trust test= 1.09D+00 RLast= 5.77D-01 DXMaxT set to 8.49D-01
 ITU=  1  1  0
 Use linear search instead of GDIIS.
     Eigenvalues ---    0.00585   0.00942   0.01871   0.02445   0.02979
     Eigenvalues ---    0.05037   0.10625   0.12862   0.13194   0.13871
     Eigenvalues ---    0.13941   0.15573   0.16588   0.19205   0.21844
     Eigenvalues ---    0.32272   0.35913   0.50650   0.52295   0.52642
     Eigenvalues ---    0.54437
 RFO step:  Lambda=-2.89705104D-03 EMin= 5.85475992D-03
 Quartic linear search produced a step of  0.16701.
 Iteration  1 RMS(Cart)=  0.05156662 RMS(Int)=  0.00702508
 Iteration  2 RMS(Cart)=  0.00591427 RMS(Int)=  0.00226599
 Iteration  3 RMS(Cart)=  0.00001309 RMS(Int)=  0.00226596
 Iteration  4 RMS(Cart)=  0.00000003 RMS(Int)=  0.00226596
 Variable       Old X    -DE/DX   Delta X   Delta X   Delta X     New X
                                 (Linear)    (Quad)   (Total)
    R1        3.07751   0.00034   0.00541   0.00282   0.00823   3.08574
    R2        3.06725   0.00128   0.00357   0.00401   0.00758   3.07483
    R3        3.03191   0.00837  -0.02600   0.02023  -0.00589   3.02602
    R4        3.83824   0.00117   0.00809   0.01124   0.01863   3.85687
    R5        5.31029   0.00673   0.05938   0.18036   0.24042   5.55071
    R6        2.85628  -0.00343   0.00172  -0.00822  -0.00650   2.84978
    R7        4.72737  -0.00220  -0.00785  -0.04852  -0.05672   4.67065
    R8        1.84024   0.00058   0.00109   0.00277   0.00434   1.84459
    R9        1.83950   0.00061   0.00114   0.00181   0.00295   1.84245
    A1        1.98885   0.00229  -0.01166   0.01355   0.00170   1.99055
    A2        2.04726  -0.00192   0.00913  -0.00573   0.00396   2.05123
    A3        1.80472   0.00010  -0.00876   0.00123  -0.00766   1.79706
    A4        2.07673  -0.00188   0.00333  -0.01218  -0.00926   2.06747
    A5        1.80476   0.00186   0.00075   0.01328   0.01402   1.81878
    A6        1.65606   0.00032   0.00813  -0.00837  -0.00072   1.65533
    A7        1.72711  -0.00167  -0.00628  -0.03076  -0.03668   1.69043
    A8        1.89739  -0.00212   0.00093  -0.01097  -0.01021   1.88718
    A9        1.75954  -0.00089   0.00170   0.01184   0.01269   1.77223
   A10        1.87412   0.00098   0.00293   0.01126   0.01479   1.88891
   A11        1.87017  -0.00468  -0.00870  -0.04769  -0.06079   1.80938
   A12        2.36064  -0.00071   0.00029  -0.02754  -0.03516   2.32548
   A13        1.87927   0.00350  -0.01175  -0.00030  -0.01973   1.85953
   A14        1.92458   0.00588   0.00748   0.03854   0.04742   1.97200
    D1       -2.68364  -0.00043   0.00843  -0.00475   0.00352  -2.68012
    D2        1.08757   0.00125   0.01126  -0.00241   0.00872   1.09629
    D3       -0.80194  -0.00062   0.00486  -0.00957  -0.00474  -0.80669
    D4       -1.36316  -0.00105   0.02435   0.06247   0.08655  -1.27661
    D5        2.95319  -0.00100   0.02005   0.04849   0.06807   3.02126
    D6        0.71495   0.00228   0.00766   0.08332   0.09096   0.80590
    D7       -1.25189   0.00233   0.00336   0.06934   0.07247  -1.17942
    D8        2.83304   0.00085   0.01383   0.07093   0.08438   2.91742
    D9        0.86621   0.00090   0.00953   0.05695   0.06590   0.93210
   D10        0.68169  -0.00105  -0.01749  -0.02801  -0.04112   0.64058
   D11       -1.75668   0.00148   0.03588   0.11035   0.14364  -1.61304
   D12       -0.43266  -0.00170  -0.01326  -0.06929  -0.08294  -0.51561
   D13       -2.41719   0.00068  -0.01595  -0.06611  -0.08244  -2.49963
   D14       -0.04899   0.00055   0.01697   0.04539   0.05971   0.01073
   D15        2.59448  -0.00207  -0.01811  -0.05843  -0.07268   2.52180
         Item               Value     Threshold  Converged?
 Maximum Force            0.008372     0.000450     NO 
 RMS     Force            0.002604     0.000300     NO 
 Maximum Displacement     0.122734     0.001800     NO 
 RMS     Displacement     0.053922     0.001200     NO 
 Predicted change in Energy=-1.841278D-03
 GradGradGradGradGradGradGradGradGradGradGradGradGradGradGradGradGradGrad

                          Input orientation:                          
 ---------------------------------------------------------------------
 Center     Atomic      Atomic             Coordinates (Angstroms)
 Number     Number       Type             X           Y           Z
 ---------------------------------------------------------------------
      1         16           0        0.149605   -0.029930   -0.041635
      2          8           0        1.670401    0.132461   -0.613640
      3          8           0        0.012486    0.225868    1.559401
      4          8           0       -0.780845   -1.143372   -0.718891
      5          8           0       -0.828563    1.549421   -0.886855
      6          9           0       -0.378555    2.808095   -0.188704
      7          8           0       -3.354491    0.141128   -0.123750
      8          1           0       -3.166513    1.093338   -0.227472
      9          1           0       -3.985608    0.061617    0.615138
 ---------------------------------------------------------------------
                    Distance matrix (angstroms):
                    1          2          3          4          5
     1  S    0.000000
     2  O    1.632905   0.000000
     3  O    1.627129   2.734870   0.000000
     4  O    1.601302   2.765400   2.773951   0.000000
     5  O    2.040970   2.885696   2.905740   2.698449   0.000000
     6  F    2.890496   3.396735   3.142720   4.007122   1.508039
     7  O    3.509230   5.048723   3.765198   2.937310   2.990975
     8  H    3.506124   4.946528   3.748528   3.306929   2.471600
     9  H    4.188045   5.788381   4.111371   3.674526   3.799537
                    6          7          8          9
     6  F    0.000000
     7  O    3.996639   0.000000
     8  H    3.273317   0.976114   0.000000
     9  H    4.604360   0.974980   1.563764   0.000000
 Stoichiometry    FH2O5S(1-)
 Framework group  C1[X(FH2O5S)]
 Deg. of freedom    21
 Full point group                 C1      NOp   1
 Largest Abelian subgroup         C1      NOp   1
 Largest concise Abelian subgroup C1      NOp   1
                         Standard orientation:                         
 ---------------------------------------------------------------------
 Center     Atomic      Atomic             Coordinates (Angstroms)
 Number     Number       Type             X           Y           Z
 ---------------------------------------------------------------------
      1         16           0        0.679329   -0.508602    0.048451
      2          8           0        2.192564   -0.264895   -0.514672
      3          8           0        0.539578   -0.354900    1.662264
      4          8           0       -0.218648   -1.607032   -0.694018
      5          8           0       -0.349628    1.088234   -0.697821
      6          9           0        0.063740    2.315458    0.074985
      7          8           0       -2.828616   -0.441115   -0.018377
      8          1           0       -2.670321    0.520986   -0.064244
      9          1           0       -3.454606   -0.584811    0.715158
 ---------------------------------------------------------------------
 Rotational constants (GHZ):      2.0900932      1.6268904      1.1940598
 Standard basis: 6-311G (5D, 7F)
 There are   105 symmetry adapted cartesian basis functions of A   symmetry.
 There are   105 symmetry adapted basis functions of A   symmetry.
   105 basis functions,   206 primitive gaussians,   105 cartesian basis functions
    34 alpha electrons       34 beta electrons
       nuclear repulsion energy       408.1949804345 Hartrees.



 Warning!  S  atom    1 may be hypervalent but has no d functions.



 NAtoms=    9 NActive=    9 NUniq=    9 SFac= 1.00D+00 NAtFMM=   60 NAOKFM=F Big=F
 Integral buffers will be    131072 words long.
 Raffenetti 2 integral format.
 Two-electron integral symmetry is turned on.
 One-electron integrals computed using PRISM.
 NBasis=   105 RedAO= T EigKep=  1.54D-02  NBF=   105
 NBsUse=   105 1.00D-06 EigRej= -1.00D+00 NBFU=   105
 Initial guess from the checkpoint file:  "HFSO4-h2o-A.chk"
 B after Tr=     0.000000    0.000000    0.000000
         Rot=    0.999875   -0.014248    0.005120   -0.004450 Ang=  -1.81 deg.
 ExpMin= 7.71D-02 ExpMax= 9.34D+04 ExpMxC= 3.17D+03 IAcc=2 IRadAn=         4 AccDes= 0.00D+00
 Harris functional with IExCor=  402 and IRadAn=       4 diagonalized for initial guess.
 HarFok:  IExCor=  402 AccDes= 0.00D+00 IRadAn=         4 IDoV= 1 UseB2=F ITyADJ=14
 ICtDFT=  3500011 ScaDFX=  1.000000  1.000000  1.000000  1.000000
 FoFCou: FMM=F IPFlag=           0 FMFlag=      100000 FMFlg1=           0
         NFxFlg=           0 DoJE=T BraDBF=F KetDBF=T FulRan=T
         wScrn=  0.000000 ICntrl=     500 IOpCl=  0 I1Cent=   200000004 NGrid=           0
         NMat0=    1 NMatS0=      1 NMatT0=    0 NMatD0=    1 NMtDS0=    0 NMtDT0=    0
 Petite list used in FoFCou.
 Keep R1 ints in memory in canonical form, NReq=16468124.
 Requested convergence on RMS density matrix=1.00D-08 within 128 cycles.
 Requested convergence on MAX density matrix=1.00D-06.
 Requested convergence on             energy=1.00D-06.
 No special actions if energy rises.
 Integral accuracy reduced to 1.0D-05 until final iterations.
 Initial convergence to 1.0D-05 achieved.  Increase integral accuracy.
 SCF Done:  E(RB3LYP) =  -875.118188754     A.U. after   15 cycles
            NFock= 15  Conv=0.88D-08     -V/T= 2.0016
 Calling FoFJK, ICntrl=      2127 FMM=F ISym2X=0 I1Cent= 0 IOpClX= 0 NMat=1 NMatS=1 NMatT=0.
 ***** Axes restored to original set *****
 -------------------------------------------------------------------
 Center     Atomic                   Forces (Hartrees/Bohr)
 Number     Number              X              Y              Z
 -------------------------------------------------------------------
      1       16           0.009192987    0.011828666    0.006427528
      2        8          -0.002611342   -0.001542161   -0.000392578
      3        8          -0.001870595   -0.001238127   -0.000706009
      4        8           0.000041383   -0.009447201   -0.005778913
      5        8          -0.003197337    0.001549525    0.000937636
      6        9           0.000588867   -0.001722610   -0.000827824
      7        8          -0.015272438    0.007776101    0.002718637
      8        1           0.010766683   -0.003899702   -0.003390495
      9        1           0.002361792   -0.003304491    0.001012017
 -------------------------------------------------------------------
 Cartesian Forces:  Max     0.015272438 RMS     0.005715560

 GradGradGradGradGradGradGradGradGradGradGradGradGradGradGradGradGradGrad
 Berny optimization.
 Using GEDIIS/GDIIS optimizer.
 FormGI is forming the generalized inverse of G from B-inverse, IUseBI=4.
 Internal  Forces:  Max     0.010106333 RMS     0.002748521
 Search for a local minimum.
 Step number   4 out of a maximum of   48
 All quantities printed in internal units (Hartrees-Bohrs-Radians)
 Mixed Optimization -- RFO/linear search
 Update second derivatives using D2CorX and points    3    4
 DE= -2.97D-03 DEPred=-1.84D-03 R= 1.61D+00
 TightC=F SS=  1.41D+00  RLast= 3.92D-01 DXNew= 1.4270D+00 1.1751D+00
 Trust test= 1.61D+00 RLast= 3.92D-01 DXMaxT set to 1.18D+00
 ITU=  1  1  1  0
 Use linear search instead of GDIIS.
     Eigenvalues ---    0.00294   0.00624   0.01589   0.02472   0.03446
     Eigenvalues ---    0.04935   0.10669   0.12812   0.13067   0.13334
     Eigenvalues ---    0.14408   0.15330   0.16487   0.18055   0.21843
     Eigenvalues ---    0.29173   0.36287   0.51239   0.52621   0.53748
     Eigenvalues ---    0.54888
 RFO step:  Lambda=-2.73003821D-03 EMin= 2.94229775D-03
 Quartic linear search produced a step of  2.00000.
 Iteration  1 RMS(Cart)=  0.11294462 RMS(Int)=  0.07124001
 Iteration  2 RMS(Cart)=  0.04226763 RMS(Int)=  0.03091797
 Iteration  3 RMS(Cart)=  0.02756895 RMS(Int)=  0.01425678
 Iteration  4 RMS(Cart)=  0.00018286 RMS(Int)=  0.01425591
 Iteration  5 RMS(Cart)=  0.00000136 RMS(Int)=  0.01425591
 Iteration  6 RMS(Cart)=  0.00000006 RMS(Int)=  0.01425591
 Variable       Old X    -DE/DX   Delta X   Delta X   Delta X     New X
                                 (Linear)    (Quad)   (Total)
    R1        3.08574  -0.00245   0.01646  -0.00940   0.00706   3.09281
    R2        3.07483  -0.00074   0.01515  -0.00404   0.01111   3.08594
    R3        3.02602   0.01011  -0.01178   0.04252   0.02932   3.05534
    R4        3.85687  -0.00078   0.03726  -0.01370   0.01963   3.87650
    R5        5.55071   0.00530   0.48083   0.12981   0.61409   6.16480
    R6        2.84978  -0.00164  -0.01301   0.00026  -0.01274   2.83704
    R7        4.67065  -0.00263  -0.11343  -0.09137  -0.20620   4.46445
    R8        1.84459  -0.00086   0.00869  -0.00349   0.00767   1.85225
    R9        1.84245  -0.00049   0.00590  -0.00271   0.00319   1.84563
    A1        1.99055   0.00212   0.00339   0.01442   0.01724   2.00778
    A2        2.05123  -0.00170   0.00793  -0.01198  -0.00246   2.04876
    A3        1.79706   0.00044  -0.01533   0.00893  -0.00430   1.79276
    A4        2.06747  -0.00129  -0.01852  -0.00511  -0.02235   2.04512
    A5        1.81878   0.00064   0.02804  -0.00621   0.02412   1.84290
    A6        1.65533   0.00016  -0.00145   0.00051  -0.00921   1.64612
    A7        1.69043  -0.00179  -0.07335  -0.03080  -0.10211   1.58832
    A8        1.88718  -0.00169  -0.02043  -0.01237  -0.03113   1.85604
    A9        1.77223  -0.00114   0.02538   0.01065   0.03016   1.80239
   A10        1.88891   0.00105   0.02959   0.00190   0.03354   1.92245
   A11        1.80938  -0.00507  -0.12157  -0.06489  -0.20466   1.60472
   A12        2.32548  -0.00213  -0.07033  -0.04977  -0.15293   2.17255
   A13        1.85953   0.00483  -0.03947   0.04863  -0.04166   1.81787
   A14        1.97200   0.00667   0.09483   0.06646   0.17161   2.14361
    D1       -2.68012  -0.00092   0.00703  -0.01032  -0.00146  -2.68159
    D2        1.09629  -0.00027   0.01743  -0.01110   0.00431   1.10060
    D3       -0.80669  -0.00075  -0.00949  -0.00273  -0.01225  -0.81893
    D4       -1.27661  -0.00104   0.17311   0.01673   0.18877  -1.08784
    D5        3.02126  -0.00108   0.13613   0.01439   0.14997  -3.11196
    D6        0.80590   0.00175   0.18191   0.03394   0.21619   1.02210
    D7       -1.17942   0.00171   0.14494   0.03159   0.17740  -1.00202
    D8        2.91742   0.00059   0.16876   0.02713   0.19513   3.11256
    D9        0.93210   0.00055   0.13179   0.02478   0.15634   1.08844
   D10        0.64058  -0.00070  -0.08223   0.00974  -0.03655   0.60403
   D11       -1.61304   0.00032   0.28729   0.07000   0.32037  -1.29267
   D12       -0.51561  -0.00175  -0.16589  -0.00764  -0.17099  -0.68659
   D13       -2.49963   0.00026  -0.16488   0.00068  -0.16327  -2.66290
   D14        0.01073   0.00018   0.11943  -0.00647   0.09525   0.10598
   D15        2.52180  -0.00293  -0.14536  -0.08696  -0.21060   2.31120
         Item               Value     Threshold  Converged?
 Maximum Force            0.010106     0.000450     NO 
 RMS     Force            0.002749     0.000300     NO 
 Maximum Displacement     0.287914     0.001800     NO 
 RMS     Displacement     0.134246     0.001200     NO 
 Predicted change in Energy=-6.001933D-03
 GradGradGradGradGradGradGradGradGradGradGradGradGradGradGradGradGradGrad

                          Input orientation:                          
 ---------------------------------------------------------------------
 Center     Atomic      Atomic             Coordinates (Angstroms)
 Number     Number       Type             X           Y           Z
 ---------------------------------------------------------------------
      1         16           0        0.164296   -0.038308   -0.044050
      2          8           0        1.701829    0.278897   -0.506623
      3          8           0       -0.114358    0.085978    1.560201
      4          8           0       -0.628488   -1.198645   -0.843560
      5          8           0       -0.892191    1.493510   -0.907434
      6          9           0       -0.373851    2.762197   -0.294534
      7          8           0       -3.493488    0.192566   -0.137368
      8          1           0       -3.108799    1.092220   -0.195436
      9          1           0       -3.917034    0.170214    0.742397
 ---------------------------------------------------------------------
                    Distance matrix (angstroms):
                    1          2          3          4          5
     1  S    0.000000
     2  O    1.636643   0.000000
     3  O    1.633009   2.758172   0.000000
     4  O    1.616819   2.779754   2.773564   0.000000
     5  O    2.051356   2.892209   2.945402   2.705794   0.000000
     6  F    2.862721   3.243487   3.266425   4.006812   1.501295
     7  O    3.666251   5.209139   3.783071   3.262270   3.008688
     8  H    3.466145   4.888811   3.614065   3.438033   2.362483
     9  H    4.161638   5.757037   3.890532   3.899176   3.690898
                    6          7          8          9
     6  F    0.000000
     7  O    4.044730   0.000000
     8  H    3.206023   0.980171   0.000000
     9  H    4.510847   0.976666   1.543654   0.000000
 Stoichiometry    FH2O5S(1-)
 Framework group  C1[X(FH2O5S)]
 Deg. of freedom    21
 Full point group                 C1      NOp   1
 Largest Abelian subgroup         C1      NOp   1
 Largest concise Abelian subgroup C1      NOp   1
                         Standard orientation:                         
 ---------------------------------------------------------------------
 Center     Atomic      Atomic             Coordinates (Angstroms)
 Number     Number       Type             X           Y           Z
 ---------------------------------------------------------------------
      1         16           0        0.715274   -0.492527    0.041179
      2          8           0        2.233914   -0.046679   -0.375419
      3          8           0        0.432534   -0.565124    1.647886
      4          8           0       -0.017788   -1.593931   -0.888140
      5          8           0       -0.419585    1.071087   -0.648220
      6          9           0        0.033603    2.287079    0.106677
      7          8           0       -2.949652   -0.440159   -0.042331
      8          1           0       -2.611779    0.478793    0.003544
      9          1           0       -3.370428   -0.583641    0.827288
 ---------------------------------------------------------------------
 Rotational constants (GHZ):      2.0982694      1.5538397      1.1640135
 Standard basis: 6-311G (5D, 7F)
 There are   105 symmetry adapted cartesian basis functions of A   symmetry.
 There are   105 symmetry adapted basis functions of A   symmetry.
   105 basis functions,   206 primitive gaussians,   105 cartesian basis functions
    34 alpha electrons       34 beta electrons
       nuclear repulsion energy       405.2121964214 Hartrees.



 Warning!  S  atom    1 may be hypervalent but has no d functions.



 NAtoms=    9 NActive=    9 NUniq=    9 SFac= 1.00D+00 NAtFMM=   60 NAOKFM=F Big=F
 Integral buffers will be    131072 words long.
 Raffenetti 2 integral format.
 Two-electron integral symmetry is turned on.
 One-electron integrals computed using PRISM.
 NBasis=   105 RedAO= T EigKep=  1.58D-02  NBF=   105
 NBsUse=   105 1.00D-06 EigRej= -1.00D+00 NBFU=   105
 Initial guess from the checkpoint file:  "HFSO4-h2o-A.chk"
 B after Tr=     0.000000    0.000000    0.000000
         Rot=    0.999332   -0.030130    0.014081   -0.015127 Ang=  -4.19 deg.
 ExpMin= 7.71D-02 ExpMax= 9.34D+04 ExpMxC= 3.17D+03 IAcc=2 IRadAn=         4 AccDes= 0.00D+00
 Harris functional with IExCor=  402 and IRadAn=       4 diagonalized for initial guess.
 HarFok:  IExCor=  402 AccDes= 0.00D+00 IRadAn=         4 IDoV= 1 UseB2=F ITyADJ=14
 ICtDFT=  3500011 ScaDFX=  1.000000  1.000000  1.000000  1.000000
 FoFCou: FMM=F IPFlag=           0 FMFlag=      100000 FMFlg1=           0
         NFxFlg=           0 DoJE=T BraDBF=F KetDBF=T FulRan=T
         wScrn=  0.000000 ICntrl=     500 IOpCl=  0 I1Cent=   200000004 NGrid=           0
         NMat0=    1 NMatS0=      1 NMatT0=    0 NMatD0=    1 NMtDS0=    0 NMtDT0=    0
 Petite list used in FoFCou.
 Keep R1 ints in memory in canonical form, NReq=16468124.
 Requested convergence on RMS density matrix=1.00D-08 within 128 cycles.
 Requested convergence on MAX density matrix=1.00D-06.
 Requested convergence on             energy=1.00D-06.
 No special actions if energy rises.
 Integral accuracy reduced to 1.0D-05 until final iterations.
 Initial convergence to 1.0D-05 achieved.  Increase integral accuracy.
 SCF Done:  E(RB3LYP) =  -875.125049413     A.U. after   17 cycles
            NFock= 17  Conv=0.64D-08     -V/T= 2.0017
 Calling FoFJK, ICntrl=      2127 FMM=F ISym2X=0 I1Cent= 0 IOpClX= 0 NMat=1 NMatS=1 NMatT=0.
 ***** Axes restored to original set *****
 -------------------------------------------------------------------
 Center     Atomic                   Forces (Hartrees/Bohr)
 Number     Number              X              Y              Z
 -------------------------------------------------------------------
      1       16           0.004485116    0.004232473    0.001547725
      2        8          -0.005506665   -0.001615538    0.001757204
      3        8          -0.000615327    0.000875539   -0.003922402
      4        8           0.002349954   -0.002623299   -0.001760534
      5        8          -0.001785628   -0.002402116    0.002763418
      6        9           0.000574136    0.002225050    0.000424994
      7        8          -0.011255984    0.014596806    0.008288103
      8        1           0.009929171   -0.007988748   -0.008383343
      9        1           0.001825227   -0.007300167   -0.000715165
 -------------------------------------------------------------------
 Cartesian Forces:  Max     0.014596806 RMS     0.005540483

 GradGradGradGradGradGradGradGradGradGradGradGradGradGradGradGradGradGrad
 Berny optimization.
 Using GEDIIS/GDIIS optimizer.
 FormGI is forming the generalized inverse of G from B-inverse, IUseBI=4.
 Internal  Forces:  Max     0.007459858 RMS     0.002849371
 Search for a local minimum.
 Step number   5 out of a maximum of   48
 All quantities printed in internal units (Hartrees-Bohrs-Radians)
 Mixed Optimization -- RFO/linear search
 Update second derivatives using D2CorX and points    4    5
 DE= -6.86D-03 DEPred=-6.00D-03 R= 1.14D+00
 TightC=F SS=  1.41D+00  RLast= 9.72D-01 DXNew= 1.9762D+00 2.9163D+00
 Trust test= 1.14D+00 RLast= 9.72D-01 DXMaxT set to 1.98D+00
 ITU=  1  1  1  1  0
 Use linear search instead of GDIIS.
     Eigenvalues ---    0.00222   0.00617   0.01621   0.02435   0.04198
     Eigenvalues ---    0.06113   0.10298   0.11461   0.12416   0.13303
     Eigenvalues ---    0.13959   0.15668   0.16655   0.18111   0.21844
     Eigenvalues ---    0.28822   0.36583   0.51363   0.52597   0.54184
     Eigenvalues ---    0.55567
 RFO step:  Lambda=-4.00125417D-03 EMin= 2.21547200D-03
 Quartic linear search produced a step of  1.15531.
 Iteration  1 RMS(Cart)=  0.14506525 RMS(Int)=  0.12861022
 Iteration  2 RMS(Cart)=  0.06628634 RMS(Int)=  0.07363104
 Iteration  3 RMS(Cart)=  0.03804163 RMS(Int)=  0.04209681
 Iteration  4 RMS(Cart)=  0.02994925 RMS(Int)=  0.02895847
 Iteration  5 RMS(Cart)=  0.00035425 RMS(Int)=  0.02895688
 Iteration  6 RMS(Cart)=  0.00001103 RMS(Int)=  0.02895687
 Iteration  7 RMS(Cart)=  0.00000071 RMS(Int)=  0.02895687
 Variable       Old X    -DE/DX   Delta X   Delta X   Delta X     New X
                                 (Linear)    (Quad)   (Total)
    R1        3.09281  -0.00598   0.00816  -0.00947  -0.00131   3.09150
    R2        3.08594  -0.00368   0.01284  -0.00474   0.00810   3.09404
    R3        3.05534   0.00200   0.03388  -0.01899   0.01452   3.06986
    R4        3.87650  -0.00274   0.02268  -0.00940   0.00845   3.88495
    R5        6.16480   0.00305   0.70946   0.17266   0.88136   7.04616
    R6        2.83704   0.00225  -0.01472   0.00828  -0.00644   2.83060
    R7        4.46445  -0.00355  -0.23823  -0.13507  -0.36937   4.09507
    R8        1.85225  -0.00318   0.00886  -0.00365   0.01012   1.86238
    R9        1.84563  -0.00127   0.00368  -0.00060   0.00308   1.84872
    A1        2.00778   0.00068   0.01991  -0.00266   0.01582   2.02360
    A2        2.04876  -0.00034  -0.00285   0.00530   0.00150   2.05026
    A3        1.79276  -0.00006  -0.00497  -0.00143   0.00427   1.79703
    A4        2.04512   0.00039  -0.02582   0.00458  -0.01281   2.03231
    A5        1.84290  -0.00176   0.02787  -0.01945   0.00829   1.85119
    A6        1.64612   0.00061  -0.01065   0.01002  -0.02165   1.62446
    A7        1.58832  -0.00140  -0.11797  -0.04363  -0.16729   1.42103
    A8        1.85604   0.00107  -0.03597   0.00414  -0.02244   1.83360
    A9        1.80239  -0.00211   0.03485   0.00298   0.03401   1.83640
   A10        1.92245   0.00034   0.03874  -0.00298   0.03238   1.95483
   A11        1.60472  -0.00580  -0.23645  -0.08857  -0.34195   1.26277
   A12        2.17255  -0.00352  -0.17668  -0.07908  -0.28917   1.88338
   A13        1.81787   0.00740  -0.04813   0.07708  -0.06094   1.75693
   A14        2.14361   0.00746   0.19827   0.09163   0.30908   2.45269
    D1       -2.68159  -0.00145  -0.00169  -0.01137  -0.00273  -2.68431
    D2        1.10060  -0.00284   0.00498  -0.02162  -0.01546   1.08514
    D3       -0.81893  -0.00126  -0.01415  -0.00612  -0.00963  -0.82857
    D4       -1.08784  -0.00003   0.21809   0.04756   0.26523  -0.82261
    D5       -3.11196   0.00008   0.17326   0.04789   0.22328  -2.88868
    D6        1.02210  -0.00005   0.24977   0.03555   0.28878   1.31087
    D7       -1.00202   0.00006   0.20495   0.03588   0.24683  -0.75519
    D8        3.11256   0.00015   0.22544   0.03929   0.26924  -2.90138
    D9        1.08844   0.00026   0.18062   0.03963   0.22729   1.31573
   D10        0.60403   0.00082  -0.04223   0.02903   0.06800   0.67202
   D11       -1.29267  -0.00317   0.37012   0.01968   0.29246  -1.00022
   D12       -0.68659  -0.00039  -0.19755   0.00019  -0.17620  -0.86279
   D13       -2.66290  -0.00070  -0.18863  -0.00481  -0.18255  -2.84545
   D14        0.10598  -0.00017   0.11004  -0.00880   0.07275   0.17872
   D15        2.31120  -0.00416  -0.24331  -0.10472  -0.28988   2.02132
         Item               Value     Threshold  Converged?
 Maximum Force            0.007460     0.000450     NO 
 RMS     Force            0.002849     0.000300     NO 
 Maximum Displacement     0.419661     0.001800     NO 
 RMS     Displacement     0.202453     0.001200     NO 
 Predicted change in Energy=-6.761465D-03
 GradGradGradGradGradGradGradGradGradGradGradGradGradGradGradGradGradGrad

                          Input orientation:                          
 ---------------------------------------------------------------------
 Center     Atomic      Atomic             Coordinates (Angstroms)
 Number     Number       Type             X           Y           Z
 ---------------------------------------------------------------------
      1         16           0        0.161574   -0.062325   -0.047602
      2          8           0        1.687833    0.464998   -0.309902
      3          8           0       -0.315403   -0.125554    1.517400
      4          8           0       -0.406413   -1.229257   -1.024673
      5          8           0       -0.987993    1.393209   -0.934359
      6          9           0       -0.417940    2.689876   -0.447166
      7          8           0       -3.656060    0.336409   -0.080515
      8          1           0       -2.997350    1.060592   -0.194211
      9          1           0       -3.730331    0.310680    0.894620
 ---------------------------------------------------------------------
                    Distance matrix (angstroms):
                    1          2          3          4          5
     1  S    0.000000
     2  O    1.635951   0.000000
     3  O    1.637296   2.775021   0.000000
     4  O    1.624502   2.786981   2.772829   0.000000
     5  O    2.055827   2.900270   2.961443   2.687698   0.000000
     6  F    2.840792   3.066464   3.434630   3.961471   1.497886
     7  O    3.838542   5.350359   3.731854   3.728666   2.994070
     8  H    3.355777   4.724304   3.395496   3.556125   2.167018
     9  H    4.021672   5.552584   3.498555   4.135641   3.469504
                    6          7          8          9
     6  F    0.000000
     7  O    4.019783   0.000000
     8  H    3.061357   0.985528   0.000000
     9  H    4.293355   0.978298   1.511682   0.000000
 Stoichiometry    FH2O5S(1-)
 Framework group  C1[X(FH2O5S)]
 Deg. of freedom    21
 Full point group                 C1      NOp   1
 Largest Abelian subgroup         C1      NOp   1
 Largest concise Abelian subgroup C1      NOp   1
                         Standard orientation:                         
 ---------------------------------------------------------------------
 Center     Atomic      Atomic             Coordinates (Angstroms)
 Number     Number       Type             X           Y           Z
 ---------------------------------------------------------------------
      1         16           0        0.774506   -0.456683    0.034869
      2          8           0        2.231212    0.279488   -0.076465
      3          8           0        0.292902   -0.867123    1.544947
      4          8           0        0.356295   -1.475114   -1.159662
      5          8           0       -0.528484    1.000624   -0.601443
      6          9           0       -0.118585    2.238167    0.136211
      7          8           0       -3.063064   -0.492461   -0.043717
      8          1           0       -2.492373    0.309820    0.000136
      9          1           0       -3.143352   -0.709701    0.906771
 ---------------------------------------------------------------------
 Rotational constants (GHZ):      2.1314385      1.4870908      1.1397270
 Standard basis: 6-311G (5D, 7F)
 There are   105 symmetry adapted cartesian basis functions of A   symmetry.
 There are   105 symmetry adapted basis functions of A   symmetry.
   105 basis functions,   206 primitive gaussians,   105 cartesian basis functions
    34 alpha electrons       34 beta electrons
       nuclear repulsion energy       403.7913021855 Hartrees.



 Warning!  S  atom    1 may be hypervalent but has no d functions.



 NAtoms=    9 NActive=    9 NUniq=    9 SFac= 1.00D+00 NAtFMM=   60 NAOKFM=F Big=F
 Integral buffers will be    131072 words long.
 Raffenetti 2 integral format.
 Two-electron integral symmetry is turned on.
 One-electron integrals computed using PRISM.
 NBasis=   105 RedAO= T EigKep=  1.59D-02  NBF=   105
 NBsUse=   105 1.00D-06 EigRej= -1.00D+00 NBFU=   105
 Initial guess from the checkpoint file:  "HFSO4-h2o-A.chk"
 B after Tr=     0.000000    0.000000    0.000000
         Rot=    0.998086   -0.044617    0.024187   -0.035323 Ang=  -7.09 deg.
 ExpMin= 7.71D-02 ExpMax= 9.34D+04 ExpMxC= 3.17D+03 IAcc=2 IRadAn=         4 AccDes= 0.00D+00
 Harris functional with IExCor=  402 and IRadAn=       4 diagonalized for initial guess.
 HarFok:  IExCor=  402 AccDes= 0.00D+00 IRadAn=         4 IDoV= 1 UseB2=F ITyADJ=14
 ICtDFT=  3500011 ScaDFX=  1.000000  1.000000  1.000000  1.000000
 FoFCou: FMM=F IPFlag=           0 FMFlag=      100000 FMFlg1=           0
         NFxFlg=           0 DoJE=T BraDBF=F KetDBF=T FulRan=T
         wScrn=  0.000000 ICntrl=     500 IOpCl=  0 I1Cent=   200000004 NGrid=           0
         NMat0=    1 NMatS0=      1 NMatT0=    0 NMatD0=    1 NMtDS0=    0 NMtDT0=    0
 Petite list used in FoFCou.
 Keep R1 ints in memory in canonical form, NReq=16468124.
 Requested convergence on RMS density matrix=1.00D-08 within 128 cycles.
 Requested convergence on MAX density matrix=1.00D-06.
 Requested convergence on             energy=1.00D-06.
 No special actions if energy rises.
 Integral accuracy reduced to 1.0D-05 until final iterations.
 Initial convergence to 1.0D-05 achieved.  Increase integral accuracy.
 SCF Done:  E(RB3LYP) =  -875.132448369     A.U. after   17 cycles
            NFock= 17  Conv=0.45D-08     -V/T= 2.0017
 Calling FoFJK, ICntrl=      2127 FMM=F ISym2X=0 I1Cent= 0 IOpClX= 0 NMat=1 NMatS=1 NMatT=0.
 ***** Axes restored to original set *****
 -------------------------------------------------------------------
 Center     Atomic                   Forces (Hartrees/Bohr)
 Number     Number              X              Y              Z
 -------------------------------------------------------------------
      1       16           0.002065797   -0.000496937   -0.001983785
      2        8          -0.006855617   -0.002367319    0.002328112
      3        8           0.000591380    0.002830913   -0.005184177
      4        8           0.002542631   -0.000596647    0.001441136
      5        8          -0.000002892   -0.002455767    0.004200326
      6        9          -0.000567166    0.004213135    0.000806841
      7        8           0.003498025    0.018523367    0.015040869
      8        1           0.002649862   -0.008944487   -0.015178013
      9        1          -0.003922020   -0.010706258   -0.001471308
 -------------------------------------------------------------------
 Cartesian Forces:  Max     0.018523367 RMS     0.006622508

 GradGradGradGradGradGradGradGradGradGradGradGradGradGradGradGradGradGrad
 Berny optimization.
 Using GEDIIS/GDIIS optimizer.
 FormGI is forming the generalized inverse of G from B-inverse, IUseBI=4.
 Internal  Forces:  Max     0.011077336 RMS     0.003760739
 Search for a local minimum.
 Step number   6 out of a maximum of   48
 All quantities printed in internal units (Hartrees-Bohrs-Radians)
 Mixed Optimization -- RFO/linear search
 Update second derivatives using D2CorX and points    5    6
 DE= -7.40D-03 DEPred=-6.76D-03 R= 1.09D+00
 TightC=F SS=  1.41D+00  RLast= 1.37D+00 DXNew= 3.3236D+00 4.1113D+00
 Trust test= 1.09D+00 RLast= 1.37D+00 DXMaxT set to 3.00D+00
 ITU=  1  1  1  1  1  0
 Use linear search instead of GDIIS.
     Eigenvalues ---    0.00196   0.00638   0.01765   0.02367   0.03991
     Eigenvalues ---    0.07590   0.08191   0.10830   0.12508   0.13664
     Eigenvalues ---    0.13896   0.15861   0.16115   0.18135   0.21733
     Eigenvalues ---    0.28985   0.36380   0.51219   0.52269   0.53746
     Eigenvalues ---    0.54743
 RFO step:  Lambda=-4.75620806D-03 EMin= 1.96228154D-03
 Quartic linear search produced a step of  0.53832.
 Iteration  1 RMS(Cart)=  0.13248828 RMS(Int)=  0.07514530
 Iteration  2 RMS(Cart)=  0.03971642 RMS(Int)=  0.03438173
 Iteration  3 RMS(Cart)=  0.03077147 RMS(Int)=  0.01517814
 Iteration  4 RMS(Cart)=  0.00025653 RMS(Int)=  0.01517682
 Iteration  5 RMS(Cart)=  0.00000185 RMS(Int)=  0.01517682
 Iteration  6 RMS(Cart)=  0.00000005 RMS(Int)=  0.01517682
 Variable       Old X    -DE/DX   Delta X   Delta X   Delta X     New X
                                 (Linear)    (Quad)   (Total)
    R1        3.09150  -0.00754  -0.00070  -0.00877  -0.00947   3.08203
    R2        3.09404  -0.00524   0.00436  -0.00447  -0.00011   3.09393
    R3        3.06986  -0.00167   0.00782  -0.00372   0.00712   3.07698
    R4        3.88495  -0.00179   0.00455   0.00638   0.01103   3.89598
[...]
   122. RY*(   6) O   7                  0.00000     4.51545   
   123. RY*(   7) O   7                  0.00000     4.71845   
   124. RY*(   8) O   7                  0.00000     4.88424   
   125. RY*(   9) O   7                  0.00000     3.50768   
   126. RY*(  10) O   7                  0.00000     3.10491   
   127. RY*(  11) O   7                  0.00000     3.16384   
   128. RY*(  12) O   7                  0.00000     3.60684   
   129. RY*(  13) O   7                  0.00000     3.46465   
   130. RY*(   1) H   8                  0.00295     0.58943   
   131. RY*(   2) H   8                  0.00152     1.67028   
   132. RY*(   3) H   8                  0.00109     1.80886   
   133. RY*(   4) H   8                  0.00061     2.24573   
   134. RY*(   5) H   8                  0.00001     2.64171   
   135. RY*(   1) H   9                  0.00241     0.73872   
   136. RY*(   2) H   9                  0.00133     1.69166   
   137. RY*(   3) H   9                  0.00101     2.00290   
   138. RY*(   4) H   9                  0.00068     2.13746   
   139. RY*(   5) H   9                  0.00003     2.56716   
   145. BD*(   1) O   7 - H   8          0.00833     0.58145   
   146. BD*(   1) O   7 - H   9          0.01509     0.59708   
       -------------------------------
              Total Lewis    9.98595  ( 99.6465%)
        Valence non-Lewis    0.02343  (  0.2338%)
        Rydberg non-Lewis    0.01200  (  0.1197%)
       -------------------------------
            Total unit  2   10.02138  (100.0000%)
           Charge unit  2   -0.02138
 1\1\GINC-PROMETIO\SP\RB3LYP\6-311G(d,p)\F1H2O5S1(1-)\SARARIOP\23-Jun-2
 017\0\\# B3LYP/6-311G** geom=check guess=read pop=nboread\\Title Card 
 Required\\-1,1\S,0,0.0916767777,-0.1983423703,-0.1300537276\O,0,1.3187
 212894,0.6649508271,0.4813361928\O,0,-1.1181574337,-0.5220729986,0.911
 6032893\O,0,0.4512803818,-1.3578866684,-1.2092493216\O,0,-0.7620996209
 ,0.9934345597,-1.5137987836\F,0,-1.2491563281,2.2368302175,-0.81086144
 58\O,0,-3.5061864423,1.027443592,0.6685758497\H,0,-3.0451022741,1.6491
 766116,0.0808989684\H,0,-2.8430597597,0.3450942195,0.8951409783\\Versi
 on=AM64L-G09RevD.01\State=1-A\HF=-875.3691467\RMSD=7.581e-09\Dipole=0.
 2487944,0.2550406,-0.2464057\Quadrupole=-7.0540856,3.5416315,3.5124541
 ,2.3139035,3.4085677,-1.7731237\PG=C01 [X(F1H2O5S1)]\\@


  THE LARGE PRINT GIVETH,
  AND THE SMALL PRINT TAKETH AWAY.

                     -- TOM WAITS
 Job cpu time:       0 days  0 hours 11 minutes  8.0 seconds.
 File lengths (MBytes):  RWF=     10 Int=      0 D2E=      0 Chk=      4 Scr=      1
 Normal termination of Gaussian 09 at Fri Jun 23 06:20:39 2017.
 Initial command:
 /usr/local/gaussian/gaussian09.d1/g09/l1.exe "/scratch/sarariop/HFSO4-h2o-A.com/Gau-17344.inp" -scrdir="/scratch/sarariop/HFSO4-h2o-A.com/"
 Default is to use a total of  10 processors:
                               10 via shared-memory
                                1 via Linda
 Entering Link 1 = /usr/local/gaussian/gaussian09.d1/g09/l1.exe PID=     22496.
  
 Copyright (c) 1988,1990,1992,1993,1995,1998,2003,2009,2013,
            Gaussian, Inc.  All Rights Reserved.
  
 This is part of the Gaussian(R) 09 program.  It is based on
 the Gaussian(R) 03 system (copyright 2003, Gaussian, Inc.),
 the Gaussian(R) 98 system (copyright 1998, Gaussian, Inc.),
 the Gaussian(R) 94 system (copyright 1995, Gaussian, Inc.),
 the Gaussian 92(TM) system (copyright 1992, Gaussian, Inc.),
 the Gaussian 90(TM) system (copyright 1990, Gaussian, Inc.),
 the Gaussian 88(TM) system (copyright 1988, Gaussian, Inc.),
 the Gaussian 86(TM) system (copyright 1986, Carnegie Mellon
 University), and the Gaussian 82(TM) system (copyright 1983,
 Carnegie Mellon University). Gaussian is a federally registered
 trademark of Gaussian, Inc.
  
 This software contains proprietary and confidential information,
 including trade secrets, belonging to Gaussian, Inc.
  
 This software is provided under written license and may be
 used, copied, transmitted, or stored only in accord with that
 written license.
  
 The following legend is applicable only to US Government
 contracts under FAR:
  
                    RESTRICTED RIGHTS LEGEND
  
 Use, reproduction and disclosure by the US Government is
 subject to restrictions as set forth in subparagraphs (a)
 and (c) of the Commercial Computer Software - Restricted
 Rights clause in FAR 52.227-19.
  
 Gaussian, Inc.
 340 Quinnipiac St., Bldg. 40, Wallingford CT 06492
  
  
 ---------------------------------------------------------------
 Warning -- This program may not be used in any manner that
 competes with the business of Gaussian, Inc. or will provide
 assistance to any competitor of Gaussian, Inc.  The licensee
 of this program is prohibited from giving any competitor of
 Gaussian, Inc. access to this program.  By using this program,
 the user acknowledges that Gaussian, Inc. is engaged in the
 business of creating and licensing software in the field of
 computational chemistry and represents and warrants to the
 licensee that it is not a competitor of Gaussian, Inc. and that
 it will not use this program in any manner prohibited above.
 ---------------------------------------------------------------
  

 Cite this work as:
 Gaussian 09, Revision D.01,
 M. J. Frisch, G. W. Trucks, H. B. Schlegel, G. E. Scuseria, 
 M. A. Robb, J. R. Cheeseman, G. Scalmani, V. Barone, B. Mennucci, 
 G. A. Petersson, H. Nakatsuji, M. Caricato, X. Li, H. P. Hratchian, 
 A. F. Izmaylov, J. Bloino, G. Zheng, J. L. Sonnenberg, M. Hada, 
 M. Ehara, K. Toyota, R. Fukuda, J. Hasegawa, M. Ishida, T. Nakajima, 
 Y. Honda, O. Kitao, H. Nakai, T. Vreven, J. A. Montgomery, Jr., 
 J. E. Peralta, F. Ogliaro, M. Bearpark, J. J. Heyd, E. Brothers, 
 K. N. Kudin, V. N. Staroverov, T. Keith, R. Kobayashi, J. Normand, 
 K. Raghavachari, A. Rendell, J. C. Burant, S. S. Iyengar, J. Tomasi, 
 M. Cossi, N. Rega, J. M. Millam, M. Klene, J. E. Knox, J. B. Cross, 
 V. Bakken, C. Adamo, J. Jaramillo, R. Gomperts, R. E. Stratmann, 
 O. Yazyev, A. J. Austin, R. Cammi, C. Pomelli, J. W. Ochterski, 
 R. L. Martin, K. Morokuma, V. G. Zakrzewski, G. A. Voth, 
 P. Salvador, J. J. Dannenberg, S. Dapprich, A. D. Daniels, 
 O. Farkas, J. B. Foresman, J. V. Ortiz, J. Cioslowski, 
 and D. J. Fox, Gaussian, Inc., Wallingford CT, 2013.
 
 ******************************************
 Gaussian 09:  AM64L-G09RevD.01 24-Apr-2013
                23-Jun-2017 
 ******************************************
 %chk=HFSO4-h2o-A.chk
 Default route:  MaxDisk=70GB
 -------------------------------------------------
 # B3LYP/6-311G** geom=check guess=read output=wfx
 -------------------------------------------------
 1/29=2,38=1/1;
 2/12=2,40=1/2;
 3/5=4,6=6,7=101,11=2,14=-4,16=1,25=1,30=1,74=-5,116=-2/1,2,3;
 4/5=1/1;
 5/5=2,38=6/2;
 6/7=2,8=2,9=2,10=2,28=1/1;
 99/5=1,6=200,9=1/99;
 -------------------
 Title Card Required
 -------------------
 Structure from the checkpoint file:  "HFSO4-h2o-A.chk"
 Charge = -1 Multiplicity = 1
 Redundant internal coordinates found in file.
 S,0,0.0916767777,-0.1983423703,-0.1300537276
 O,0,1.3187212894,0.6649508271,0.4813361928
 O,0,-1.1181574337,-0.5220729986,0.9116032893
 O,0,0.4512803818,-1.3578866684,-1.2092493216
 O,0,-0.7620996209,0.9934345597,-1.5137987836
 F,0,-1.2491563281,2.2368302175,-0.8108614458
 O,0,-3.5061864423,1.027443592,0.6685758497
 H,0,-3.0451022741,1.6491766116,0.0808989684
 H,0,-2.8430597597,0.3450942195,0.8951409783
 Recover connectivity data from disk.
                          Input orientation:                          
 ---------------------------------------------------------------------
 Center     Atomic      Atomic             Coordinates (Angstroms)
 Number     Number       Type             X           Y           Z
 ---------------------------------------------------------------------
      1         16           0        0.091677   -0.198342   -0.130054
      2          8           0        1.318721    0.664951    0.481336
      3          8           0       -1.118157   -0.522073    0.911603
      4          8           0        0.451280   -1.357887   -1.209249
      5          8           0       -0.762100    0.993435   -1.513799
      6          9           0       -1.249156    2.236830   -0.810861
      7          8           0       -3.506186    1.027444    0.668576
      8          1           0       -3.045102    1.649177    0.080899
      9          1           0       -2.843060    0.345094    0.895141
 ---------------------------------------------------------------------
                    Distance matrix (angstroms):
                    1          2          3          4          5
     1  S    0.000000
     2  O    1.620096   0.000000
     3  O    1.628972   2.744546   0.000000
     4  O    1.624352   2.775321   2.767623   0.000000
     5  O    2.015941   2.901427   2.882033   2.663410   0.000000
     6  F    2.862062   3.276366   3.255087   3.996522   1.509098
     7  O    3.883939   4.842127   2.857052   4.987742   3.506270
     8  H    3.646534   4.491326   3.019522   4.788695   2.860972
     9  H    3.155792   4.194516   1.930683   4.263951   3.248651
                    6          7          8          9
     6  F    0.000000
     7  O    2.957285   0.000000
     8  H    2.089496   0.971861   0.000000
     9  H    3.004936   0.978095   1.550626   0.000000
 Stoichiometry    FH2O5S(1-)
 Framework group  C1[X(FH2O5S)]
 Deg. of freedom    21
 Full point group                 C1      NOp   1
 Largest Abelian subgroup         C1      NOp   1
 Largest concise Abelian subgroup C1      NOp   1
                         Standard orientation:                         
 ---------------------------------------------------------------------
 Center     Atomic      Atomic             Coordinates (Angstroms)
 Number     Number       Type             X           Y           Z
 ---------------------------------------------------------------------
      1         16           0        0.919050   -0.251346    0.067831
      2          8           0        1.515240    0.400630    1.425843
      3          8           0       -0.139599   -1.469759    0.287561
      4          8           0        1.916529   -0.376507   -1.208057
      5          8           0       -0.183934    1.205272   -0.784052
      6          9           0       -1.279319    1.577550    0.184926
      7          8           0       -2.912170   -0.875626   -0.062580
      8          1           0       -2.710584    0.075096   -0.060241
      9          1           0       -2.048873   -1.323601    0.040893
 ---------------------------------------------------------------------
 Rotational constants (GHZ):      2.6096380      1.3672904      1.1821108
 Standard basis: 6-311G(d,p) (5D, 7F)
 There are   153 symmetry adapted cartesian basis functions of A   symmetry.
 There are   146 symmetry adapted basis functions of A   symmetry.
   146 basis functions,   254 primitive gaussians,   153 cartesian basis functions
    34 alpha electrons       34 beta electrons
       nuclear repulsion energy       410.0700317593 Hartrees.
 NAtoms=    9 NActive=    9 NUniq=    9 SFac= 1.00D+00 NAtFMM=   60 NAOKFM=F Big=F
 Integral buffers will be    131072 words long.
 Raffenetti 2 integral format.
 Two-electron integral symmetry is turned on.
 One-electron integrals computed using PRISM.
 GSVD:  received Info=                   1 from GESDD.
 NBasis=   146 RedAO= T EigKep=  1.44D-02  NBF=   146
 NBsUse=   146 1.00D-06 EigRej= -1.00D+00 NBFU=   146
 Initial guess from the checkpoint file:  "HFSO4-h2o-A.chk"
 B after Tr=     0.000000    0.000000    0.000000
         Rot=    1.000000    0.000000    0.000000    0.000000 Ang=   0.00 deg.
 Keep R1 ints in memory in canonical form, NReq=59500040.
 Requested convergence on RMS density matrix=1.00D-08 within 128 cycles.
 Requested convergence on MAX density matrix=1.00D-06.
 Requested convergence on             energy=1.00D-06.
 No special actions if energy rises.
 SCF Done:  E(RB3LYP) =  -875.369146732     A.U. after    1 cycles
            NFock=  1  Conv=0.41D-08     -V/T= 2.0028

 **********************************************************************

            Population analysis using the SCF density.

 **********************************************************************

 Orbital symmetries:
       Occupied  (A) (A) (A) (A) (A) (A) (A) (A) (A) (A) (A) (A)
                 (A) (A) (A) (A) (A) (A) (A) (A) (A) (A) (A) (A)
                 (A) (A) (A) (A) (A) (A) (A) (A) (A) (A)
       Virtual   (A) (A) (A) (A) (A) (A) (A) (A) (A) (A) (A) (A)
                 (A) (A) (A) (A) (A) (A) (A) (A) (A) (A) (A) (A)
                 (A) (A) (A) (A) (A) (A) (A) (A) (A) (A) (A) (A)
                 (A) (A) (A) (A) (A) (A) (A) (A) (A) (A) (A) (A)
                 (A) (A) (A) (A) (A) (A) (A) (A) (A) (A) (A) (A)
                 (A) (A) (A) (A) (A) (A) (A) (A) (A) (A) (A) (A)
                 (A) (A) (A) (A) (A) (A) (A) (A) (A) (A) (A) (A)
                 (A) (A) (A) (A) (A) (A) (A) (A) (A) (A) (A) (A)
                 (A) (A) (A) (A) (A) (A) (A) (A) (A) (A) (A) (A)
                 (A) (A) (A) (A)
 The electronic state is 1-A.
 Alpha  occ. eigenvalues --  -88.94461 -24.55464 -19.07558 -18.99509 -18.99481
 Alpha  occ. eigenvalues --  -18.99431 -18.93262  -8.00052  -5.96419  -5.96221
 Alpha  occ. eigenvalues --   -5.96206  -1.05924  -0.91987  -0.82914  -0.81551
 Alpha  occ. eigenvalues --   -0.81365  -0.77797  -0.49541  -0.37349  -0.35927
 Alpha  occ. eigenvalues --   -0.33445  -0.31930  -0.31165  -0.30458  -0.26901
 Alpha  occ. eigenvalues --   -0.21289  -0.19080  -0.18919  -0.17873  -0.17216
 Alpha  occ. eigenvalues --   -0.16511  -0.15259  -0.14047  -0.13425
 Alpha virt. eigenvalues --    0.04146   0.06849   0.11122   0.21473   0.22819
 Alpha virt. eigenvalues --    0.23869   0.31545   0.33295   0.36611   0.37336
 Alpha virt. eigenvalues --    0.51378   0.54027   0.60598   0.71062   0.72806
 Alpha virt. eigenvalues --    0.84397   0.84766   0.87186   0.88905   0.91656
 Alpha virt. eigenvalues --    0.93730   0.96703   0.98171   1.00434   1.02431
 Alpha virt. eigenvalues --    1.03607   1.04315   1.04602   1.06063   1.11034
 Alpha virt. eigenvalues --    1.11625   1.12973   1.16244   1.19464   1.24267
 Alpha virt. eigenvalues --    1.26525   1.31206   1.41267   1.44779   1.45099
 Alpha virt. eigenvalues --    1.45895   1.54650   1.64271   1.64663   1.74029
 Alpha virt. eigenvalues --    1.78927   1.80505   1.83411   1.84546   2.20703
 Alpha virt. eigenvalues --    2.27399   2.46867   2.65434   2.89676   2.91593
 Alpha virt. eigenvalues --    2.91813   2.92201   2.93910   2.95991   2.96231
 Alpha virt. eigenvalues --    2.96549   2.96681   2.97235   2.97432   2.99294
 Alpha virt. eigenvalues --    3.01350   3.04693   3.12589   3.13240   3.19670
 Alpha virt. eigenvalues --    3.26110   3.28087   3.31501   3.48263   3.49503
 Alpha virt. eigenvalues --    3.51038   3.76166   3.92717   3.93820   3.95053
 Alpha virt. eigenvalues --    3.96011   3.99502   4.23233   4.85018   4.88161
 Alpha virt. eigenvalues --    4.91165   4.92316   4.93281   4.94062   4.95227
 Alpha virt. eigenvalues --    4.98304   4.99492   5.08401   5.09495   5.14242
 Alpha virt. eigenvalues --    5.16823   5.36169   5.78828   6.20026   6.24417
 Alpha virt. eigenvalues --    6.32804   7.73041  17.27294  17.31693  17.33005
 Alpha virt. eigenvalues --   49.79599  49.87732  49.88063  49.96716  50.03139
 Alpha virt. eigenvalues --   66.77285 188.73447
          Condensed to atoms (all electrons):
               1          2          3          4          5          6
     1  S   13.854214   0.337889   0.295036   0.325539   0.072099  -0.002660
     2  O    0.337889   8.262342  -0.031716  -0.028737  -0.018787   0.000460
     3  O    0.295036  -0.031716   8.327678  -0.029147  -0.019075   0.000562
     4  O    0.325539  -0.028737  -0.029147   8.285549  -0.017451   0.000282
     5  O    0.072099  -0.018787  -0.019075  -0.017451   8.189899   0.027425
     6  F   -0.002660   0.000460   0.000562   0.000282   0.027425   9.166850
     7  O    0.002223  -0.000007  -0.009211  -0.000004   0.000544  -0.004088
     8  H    0.001339  -0.000085   0.002970  -0.000064  -0.001485   0.019918
     9  H   -0.004698  -0.000190   0.026499  -0.000177   0.000978   0.000789
               7          8          9
     1  S    0.002223   0.001339  -0.004698
     2  O   -0.000007  -0.000085  -0.000190
     3  O   -0.009211   0.002970   0.026499
     4  O   -0.000004  -0.000064  -0.000177
     5  O    0.000544  -0.001485   0.000978
     6  F   -0.004088   0.019918   0.000789
     7  O    7.910794   0.324146   0.339841
     8  H    0.324146   0.470870  -0.052563
     9  H    0.339841  -0.052563   0.415017
 Mulliken charges:
               1
     1  S    1.119019
     2  O   -0.521169
     3  O   -0.563596
     4  O   -0.535789
     5  O   -0.234145
     6  F   -0.209538
     7  O   -0.564239
     8  H    0.234954
     9  H    0.274504
 Sum of Mulliken charges =  -1.00000
 Mulliken charges with hydrogens summed into heavy atoms:
               1
     1  S    1.119019
     2  O   -0.521169
     3  O   -0.563596
     4  O   -0.535789
     5  O   -0.234145
     6  F   -0.209538
     7  O   -0.054781
 Electronic spatial extent (au):  <R**2>=           1035.6980
 Charge=             -1.0000 electrons
 Dipole moment (field-independent basis, Debye):
    X=              0.3452    Y=              1.0444    Z=              0.0485  Tot=              1.1011
 Quadrupole moment (field-independent basis, Debye-Ang):
   XX=            -70.4323   YY=            -54.9095   ZZ=            -55.5116
   XY=             -5.0699   XZ=              0.0654   YZ=             -0.9368
 Traceless Quadrupole moment (field-independent basis, Debye-Ang):
   XX=            -10.1478   YY=              5.3749   ZZ=              4.7729
   XY=             -5.0699   XZ=              0.0654   YZ=             -0.9368
 Octapole moment (field-independent basis, Debye-Ang**2):
  XXX=             20.2009  YYY=              7.3978  ZZZ=             -1.6291  XYY=              1.0263
  XXY=             21.1426  XXZ=              4.2874  XZZ=            -13.0477  YZZ=              2.5806
  YYZ=              0.3785  XYZ=             -3.0551
 Hexadecapole moment (field-independent basis, Debye-Ang**3):
 XXXX=           -900.0027 YYYY=           -298.7026 ZZZZ=           -199.0978 XXXY=            -79.0126
 XXXZ=              2.2463 YYYX=             -3.8656 YYYZ=              2.4763 ZZZX=             -4.2403
 ZZZY=             -0.9929 XXYY=           -178.8356 XXZZ=           -169.8292 YYZZ=            -82.0872
 XXYZ=             -8.5655 YYXZ=             -0.5630 ZZXY=             -4.1430
 N-N= 4.100700317593D+02 E-N=-2.909785691854D+03  KE= 8.728836331914D+02
 1\1\GINC-PROMETIO\SP\RB3LYP\6-311G(d,p)\F1H2O5S1(1-)\SARARIOP\23-Jun-2
 017\0\\# B3LYP/6-311G** geom=check guess=read output=wfx\\Title Card R
 equired\\-1,1\S,0,0.0916767777,-0.1983423703,-0.1300537276\O,0,1.31872
 12894,0.6649508271,0.4813361928\O,0,-1.1181574337,-0.5220729986,0.9116
 032893\O,0,0.4512803818,-1.3578866684,-1.2092493216\O,0,-0.7620996209,
 0.9934345597,-1.5137987836\F,0,-1.2491563281,2.2368302175,-0.810861445
 8\O,0,-3.5061864423,1.027443592,0.6685758497\H,0,-3.0451022741,1.64917
 66116,0.0808989684\H,0,-2.8430597597,0.3450942195,0.8951409783\\Versio
 n=AM64L-G09RevD.01\State=1-A\HF=-875.3691467\RMSD=4.060e-09\Dipole=0.2
 487915,0.2550416,-0.2464034\Quadrupole=-7.0540893,3.5416312,3.5124581,
 2.3139082,3.408568,-1.7731318\PG=C01 [X(F1H2O5S1)]\\@

 Writing a WFNX file to "HFSO4-h2o-A.wfx"


 ALL SCIENCE IS EITHER PHYSICS, OR STAMP COLLECTING.
   --ERNEST RUTHERFORD, 1871-1937.
 Job cpu time:       0 days  0 hours  1 minutes 18.3 seconds.
 File lengths (MBytes):  RWF=     10 Int=      0 D2E=      0 Chk=      4 Scr=      1
 Normal termination of Gaussian 09 at Fri Jun 23 06:20:51 2017.
